       N       E                     dE             d eps       ncg     rms          rms(c)
DAV:   1     0.112573550468E+04    0.11257E+04   -0.35981E+04  8160   0.577E+02
DAV:   2    -0.371691166590E+01   -0.11295E+04   -0.10905E+04 11120   0.173E+02
DAV:   3    -0.199583632666E+03   -0.19587E+03   -0.18795E+03 10840   0.819E+01
DAV:   4    -0.208945963470E+03   -0.93623E+01   -0.90322E+01 12160   0.262E+01
DAV:   5    -0.209275751710E+03   -0.32979E+00   -0.32878E+00 11440   0.358E+00    0.275E+01
DAV:   6    -0.237133443057E+03   -0.27858E+02   -0.10763E+02 12680   0.605E+01    0.594E+01
DAV:   7    -0.196664980979E+03    0.40468E+02   -0.17759E+02 13080   0.152E+02    0.204E+01
DAV:   8    -0.190082493484E+03    0.65825E+01   -0.20298E+01 11680   0.134E+01    0.137E+01
DAV:   9    -0.188318388066E+03    0.17641E+01   -0.35118E+00 12120   0.623E+00    0.940E+00
DAV:  10    -0.187127287239E+03    0.11911E+01   -0.17834E+00 13200   0.759E+00    0.339E+00
DAV:  11    -0.187012523642E+03    0.11476E+00   -0.65532E-01 12480   0.250E+00    0.236E+00
DAV:  12    -0.187033253205E+03   -0.20730E-01   -0.46561E-01 12680   0.328E+00    0.356E+00
DAV:  13    -0.186933632253E+03    0.99621E-01   -0.30028E-01 13200   0.318E+00    0.192E+00
DAV:  14    -0.186904141616E+03    0.29491E-01   -0.10819E-01 12720   0.174E+00    0.104E+00
DAV:  15    -0.186898412223E+03    0.57294E-02   -0.45930E-02 12280   0.116E+00    0.101E+00
DAV:  16    -0.186891820032E+03    0.65922E-02   -0.16885E-02 12680   0.685E-01    0.488E-01
DAV:  17    -0.186889115997E+03    0.27040E-02   -0.74625E-03 12720   0.392E-01    0.178E-01
DAV:  18    -0.186888586031E+03    0.52997E-03   -0.18833E-03 11560   0.139E-01    0.164E-01
DAV:  19    -0.186888375853E+03    0.21018E-03   -0.76008E-04 10880   0.133E-01    0.461E-02
DAV:  20    -0.186889262738E+03   -0.88689E-03   -0.82748E-04  9160   0.567E-02    0.427E-02
DAV:  21    -0.186890202676E+03   -0.93994E-03   -0.23547E-04  8200   0.537E-02    0.374E-02
DAV:  22    -0.186890953747E+03   -0.75107E-03   -0.94746E-05  6360   0.287E-02    0.329E-02
DAV:  23    -0.186892093454E+03   -0.11397E-02   -0.14170E-04  7480   0.406E-02    0.165E-02
DAV:  24    -0.186892674627E+03   -0.58117E-03   -0.26154E-05  6760   0.176E-02    0.463E-03
DAV:  25    -0.186893040843E+03   -0.36622E-03   -0.16362E-05  5560   0.894E-03    0.513E-03
DAV:  26    -0.186893287468E+03   -0.24663E-03   -0.93551E-06  6760   0.773E-03    0.154E-03
DAV:  27    -0.186893380152E+03   -0.92684E-04   -0.33062E-06  7240   0.401E-03
   1 F= -.18689338E+03 E0= -.18672270E+03  d E =-.186893E+03
       N       E                     dE             d eps       ncg     rms          rms(c)
DAV:   1    -0.187532318197E+03   -0.63903E+00   -0.27046E+02  8160   0.349E+01    0.464E+00
DAV:   2    -0.189489658661E+03   -0.19573E+01   -0.20211E+01 12280   0.155E+01    0.932E+00
DAV:   3    -0.189372980086E+03    0.11668E+00   -0.42180E+00 12440   0.122E+01    0.652E+00
DAV:   4    -0.188787511504E+03    0.58547E+00   -0.58071E-01 12520   0.449E+00    0.176E+00
DAV:   5    -0.188928093394E+03   -0.14058E+00   -0.49755E-01 12360   0.359E+00    0.583E+00
DAV:   6    -0.188751478720E+03    0.17661E+00   -0.84810E-01 12760   0.444E+00    0.193E+00
DAV:   7    -0.188719886951E+03    0.31592E-01   -0.12234E-01 11840   0.144E+00    0.109E+00
DAV:   8    -0.188711556534E+03    0.83304E-02   -0.58442E-02 12960   0.131E+00    0.126E+00
DAV:   9    -0.188700042932E+03    0.11514E-01   -0.20715E-02 11920   0.817E-01    0.299E-01
DAV:  10    -0.188699533252E+03    0.50968E-03   -0.32499E-03 12880   0.213E-01    0.182E-01
DAV:  11    -0.188699126558E+03    0.40669E-03   -0.20925E-03 11720   0.150E-01    0.118E-01
DAV:  12    -0.188699212201E+03   -0.85643E-04   -0.93547E-04 12000   0.887E-02
   2 F= -.18869921E+03 E0= -.18856093E+03  d E =-.180583E+01
       N       E                     dE             d eps       ncg     rms          rms(c)
DAV:   1    -0.190620415782E+03   -0.19213E+01   -0.31002E+01  9120   0.142E+01    0.443E+00
DAV:   2    -0.190570297044E+03    0.50119E-01   -0.27344E+00 11120   0.942E+00    0.722E+00
DAV:   3    -0.190108058047E+03    0.46224E+00   -0.13109E+00 12360   0.859E+00    0.425E+00
DAV:   4    -0.189895120194E+03    0.21294E+00   -0.70215E-01 12560   0.420E+00    0.250E+00
DAV:   5    -0.189848655410E+03    0.46465E-01   -0.33716E-01 12320   0.270E+00    0.233E+00
DAV:   6    -0.189798057260E+03    0.50598E-01   -0.11713E-01 12720   0.214E+00    0.766E-01
DAV:   7    -0.189791475577E+03    0.65817E-02   -0.13774E-02 11600   0.565E-01    0.208E-01
DAV:   8    -0.189792072169E+03   -0.59659E-03   -0.37020E-03 12360   0.298E-01    0.310E-01
DAV:   9    -0.189791526541E+03    0.54563E-03   -0.20439E-03 10760   0.293E-01    0.154E-01
DAV:  10    -0.189791812902E+03   -0.28636E-03   -0.92634E-04  9760   0.138E-01    0.127E-01
DAV:  11    -0.189791539760E+03    0.27314E-03   -0.45678E-04  8800   0.763E-02    0.214E-02
DAV:  12    -0.189791563038E+03   -0.23278E-04   -0.73907E-05  6600   0.287E-02
   3 F= -.18979156E+03 E0= -.18967499E+03  d E =-.109235E+01
       N       E                     dE             d eps       ncg     rms          rms(c)
DAV:   1    -0.191367581603E+03   -0.15760E+01   -0.74697E+01  8160   0.197E+01    0.457E+00
DAV:   2    -0.191183986659E+03    0.18359E+00   -0.53368E+00 13360   0.760E+00    0.450E+00
DAV:   3    -0.191338754217E+03   -0.15477E+00   -0.15089E+00 12200   0.905E+00    0.675E+00
DAV:   4    -0.190939471529E+03    0.39928E+00   -0.13570E+00 12440   0.765E+00    0.296E+00
DAV:   5    -0.190900171789E+03    0.39300E-01   -0.42511E-01 12320   0.397E+00    0.290E+00
DAV:   6    -0.190808647943E+03    0.91524E-01   -0.19856E-01 12320   0.313E+00    0.116E+00
DAV:   7    -0.190797354781E+03    0.11293E-01   -0.42039E-02 12560   0.108E+00    0.453E-01
DAV:   8    -0.190794195818E+03    0.31590E-02   -0.68904E-03 10320   0.376E-01    0.232E-01
DAV:   9    -0.190794296445E+03   -0.10063E-03   -0.22850E-03 11600   0.319E-01    0.235E-01
DAV:  10    -0.190794197587E+03    0.98858E-04   -0.15905E-03 11200   0.216E-01    0.918E-02
DAV:  11    -0.190794092558E+03    0.10503E-03   -0.50789E-04  9440   0.855E-02    0.464E-02
DAV:  12    -0.190794086062E+03    0.64964E-05   -0.10996E-04  7040   0.398E-02
   4 F= -.19079409E+03 E0= -.19069610E+03  d E =-.100252E+01
       N       E                     dE             d eps       ncg     rms          rms(c)
DAV:   1    -0.192257879589E+03   -0.14638E+01   -0.17007E+02  8160   0.290E+01    0.576E+00
DAV:   2    -0.191993140155E+03    0.26474E+00   -0.99410E+00 11000   0.795E+00    0.361E+00
DAV:   3    -0.192066728147E+03   -0.73588E-01   -0.18800E+00 12240   0.796E+00    0.610E+00
DAV:   4    -0.191865737041E+03    0.20099E+00   -0.14978E+00 12040   0.949E+00    0.467E+00
DAV:   5    -0.191602357968E+03    0.26338E+00   -0.61572E-01 12400   0.467E+00    0.150E+00
DAV:   6    -0.191591681941E+03    0.10676E-01   -0.15298E-01 12720   0.266E+00    0.156E+00
DAV:   7    -0.191573433055E+03    0.18249E-01   -0.85009E-02 12360   0.210E+00    0.744E-01
DAV:   8    -0.191565999874E+03    0.74332E-02   -0.13644E-02 11720   0.738E-01    0.368E-01
DAV:   9    -0.191565158835E+03    0.84104E-03   -0.44441E-03 12040   0.461E-01    0.219E-01
DAV:  10    -0.191565134576E+03    0.24260E-04   -0.23904E-03 11480   0.209E-01    0.840E-02
DAV:  11    -0.191565074233E+03    0.60342E-04   -0.54856E-04 10840   0.872E-02
   5 F= -.19156507E+03 E0= -.19147886E+03  d E =-.770988E+00
       N       E                     dE             d eps       ncg     rms          rms(c)
DAV:   1    -0.191688812609E+03   -0.12368E+00   -0.99540E+00  8160   0.671E+00    0.774E-01
DAV:   2    -0.191753061924E+03   -0.64249E-01   -0.38220E-01 12680   0.292E+00    0.202E+00
DAV:   3    -0.191709565148E+03    0.43497E-01   -0.10208E-01 12560   0.241E+00    0.553E-01
DAV:   4    -0.191708761955E+03    0.80319E-03   -0.13666E-02 11680   0.786E-01    0.596E-01
DAV:   5    -0.191705550676E+03    0.32113E-02   -0.91689E-03 11720   0.731E-01    0.305E-01
DAV:   6    -0.191705268187E+03    0.28249E-03   -0.42275E-03 11440   0.349E-01    0.199E-01
DAV:   7    -0.191704712499E+03    0.55569E-03   -0.21011E-03 11600   0.249E-01    0.163E-01
DAV:   8    -0.191704494937E+03    0.21756E-03   -0.72258E-04  9200   0.190E-01    0.603E-02
DAV:   9    -0.191704489005E+03    0.59317E-05   -0.12470E-04  6160   0.640E-02
   6 F= -.19170449E+03 E0= -.19162009E+03  d E =-.139415E+00
       N       E                     dE             d eps       ncg     rms          rms(c)
DAV:   1    -0.191831181124E+03   -0.12669E+00   -0.10721E+01  8160   0.699E+00    0.750E-01
DAV:   2    -0.191877093855E+03   -0.45913E-01   -0.36351E-01 12760   0.257E+00    0.157E+00
DAV:   3    -0.191852120909E+03    0.24973E-01   -0.71634E-02 12600   0.208E+00    0.585E-01
DAV:   4    -0.191848501382E+03    0.36195E-02   -0.10339E-02 11680   0.671E-01    0.431E-01
DAV:   5    -0.191848005770E+03    0.49561E-03   -0.84480E-03 12160   0.709E-01    0.417E-01
DAV:   6    -0.191847023417E+03    0.98235E-03   -0.60142E-03 11920   0.478E-01    0.210E-01
DAV:   7    -0.191846090168E+03    0.93325E-03   -0.17910E-03 10320   0.171E-01    0.380E-02
DAV:   8    -0.191846113107E+03   -0.22939E-04   -0.18038E-04  7400   0.498E-02
   7 F= -.19184611E+03 E0= -.19176413E+03  d E =-.141624E+00
       N       E                     dE             d eps       ncg     rms          rms(c)
DAV:   1    -0.192004781994E+03   -0.15869E+00   -0.24910E+01  8160   0.107E+01    0.110E+00
DAV:   2    -0.192076454212E+03   -0.71672E-01   -0.84813E-01 12320   0.310E+00    0.141E+00
DAV:   3    -0.192070588170E+03    0.58660E-02   -0.10381E-01 12240   0.264E+00    0.124E+00
DAV:   4    -0.192050300479E+03    0.20288E-01   -0.26380E-02 11880   0.130E+00    0.502E-01
DAV:   5    -0.192053822800E+03   -0.35223E-02   -0.18581E-02 12240   0.109E+00    0.805E-01
DAV:   6    -0.192048528197E+03    0.52946E-02   -0.15666E-02 12520   0.897E-01    0.288E-01
DAV:   7    -0.192046836254E+03    0.16919E-02   -0.33036E-03 10400   0.239E-01    0.633E-02
DAV:   8    -0.192046864593E+03   -0.28339E-04   -0.49568E-04 10400   0.982E-02
   8 F= -.19204686E+03 E0= -.19196659E+03  d E =-.200751E+00
       N       E                     dE             d eps       ncg     rms          rms(c)
DAV:   1    -0.192156404908E+03   -0.10957E+00   -0.57378E+01  8160   0.163E+01    0.169E+00
DAV:   2    -0.192321903243E+03   -0.16550E+00   -0.21168E+00 11360   0.431E+00    0.180E+00
DAV:   3    -0.192352181874E+03   -0.30279E-01   -0.24416E-01 12240   0.418E+00    0.242E+00
DAV:   4    -0.192282233374E+03    0.69949E-01   -0.83805E-02 12240   0.258E+00    0.765E-01
DAV:   5    -0.192283900331E+03   -0.16670E-02   -0.31314E-02 12280   0.154E+00    0.939E-01
DAV:   6    -0.192276452428E+03    0.74479E-02   -0.29103E-02 12600   0.123E+00    0.487E-01
DAV:   7    -0.192274360651E+03    0.20918E-02   -0.10616E-02 11840   0.800E-01    0.381E-01
DAV:   8    -0.192272681366E+03    0.16793E-02   -0.26943E-03 11280   0.413E-01    0.869E-02
DAV:   9    -0.192272558346E+03    0.12302E-03   -0.69720E-04 10240   0.936E-02    0.489E-02
DAV:  10    -0.192272518002E+03    0.40343E-04   -0.20398E-04  7920   0.467E-02
   9 F= -.19227252E+03 E0= -.19219797E+03  d E =-.225653E+00
       N       E                     dE             d eps       ncg     rms          rms(c)
DAV:   1    -0.192297491841E+03   -0.24933E-01   -0.18276E+00  8160   0.291E+00    0.408E-01
DAV:   2    -0.192305398012E+03   -0.79062E-02   -0.77590E-02 12440   0.120E+00    0.771E-01
DAV:   3    -0.192300282583E+03    0.51154E-02   -0.16698E-02 12280   0.110E+00    0.389E-01
DAV:   4    -0.192298464951E+03    0.18176E-02   -0.36782E-03 12560   0.469E-01    0.202E-01
DAV:   5    -0.192298623970E+03   -0.15902E-03   -0.26279E-03 11840   0.428E-01    0.259E-01
DAV:   6    -0.192297842177E+03    0.78179E-03   -0.18958E-03 12120   0.332E-01    0.759E-02
DAV:   7    -0.192297760268E+03    0.81909E-04   -0.33757E-04  9000   0.855E-02
  10 F= -.19229776E+03 E0= -.19222416E+03  d E =-.252423E-01
       N       E                     dE             d eps       ncg     rms          rms(c)
DAV:   1    -0.192338643969E+03   -0.40802E-01   -0.15470E+01  8160   0.835E+00    0.895E-01
DAV:   2    -0.192389996437E+03   -0.51352E-01   -0.56857E-01 11840   0.248E+00    0.126E+00
DAV:   3    -0.192384944849E+03    0.50516E-02   -0.71094E-02 12120   0.230E+00    0.112E+00
DAV:   4    -0.192369648056E+03    0.15297E-01   -0.18584E-02 12360   0.116E+00    0.271E-01
DAV:   5    -0.192370188297E+03   -0.54024E-03   -0.70208E-03 11680   0.497E-01    0.354E-01
DAV:   6    -0.192369790924E+03    0.39737E-03   -0.56285E-03 11040   0.647E-01    0.342E-01
DAV:   7    -0.192368374589E+03    0.14163E-02   -0.23681E-03 11800   0.383E-01    0.859E-02
DAV:   8    -0.192368369686E+03    0.49033E-05   -0.43458E-04  8680   0.158E-01
  11 F= -.19236837E+03 E0= -.19229852E+03  d E =-.706094E-01
       N       E                     dE             d eps       ncg     rms          rms(c)
DAV:   1    -0.192380592951E+03   -0.12218E-01   -0.83992E-01  8160   0.197E+00    0.235E-01
DAV:   2    -0.192384073153E+03   -0.34802E-02   -0.32863E-02 12480   0.729E-01    0.432E-01
DAV:   3    -0.192382477735E+03    0.15954E-02   -0.55215E-03 12560   0.641E-01    0.227E-01
DAV:   4    -0.192381846006E+03    0.63173E-03   -0.10448E-03 10480   0.251E-01    0.998E-02
DAV:   5    -0.192381916237E+03   -0.70230E-04   -0.70041E-04 10640   0.219E-01
  12 F= -.19238192E+03 E0= -.19231262E+03  d E =-.135466E-01
       N       E                     dE             d eps       ncg     rms          rms(c)
DAV:   1    -0.192391393672E+03   -0.95477E-02   -0.40535E-01  8160   0.136E+00    0.190E-01
DAV:   2    -0.192393275119E+03   -0.18814E-02   -0.15898E-02 12280   0.580E-01    0.372E-01
DAV:   3    -0.192391887616E+03    0.13875E-02   -0.33340E-03 12520   0.510E-01    0.153E-01
DAV:   4    -0.192391741963E+03    0.14565E-03   -0.75349E-04 10400   0.223E-01    0.129E-01
DAV:   5    -0.192391594402E+03    0.14756E-03   -0.53920E-04 10200   0.203E-01    0.838E-02
DAV:   6    -0.192391540323E+03    0.54078E-04   -0.27266E-04  8040   0.120E-01
  13 F= -.19239154E+03 E0= -.19232272E+03  d E =-.962409E-02
       N       E                     dE             d eps       ncg     rms          rms(c)
DAV:   1    -0.192404606745E+03   -0.13012E-01   -0.11016E+00  8160   0.221E+00    0.254E-01
DAV:   2    -0.192409876451E+03   -0.52697E-02   -0.42615E-02 11000   0.900E-01    0.512E-01
DAV:   3    -0.192407297830E+03    0.25786E-02   -0.69608E-03 12320   0.721E-01    0.230E-01
DAV:   4    -0.192406755914E+03    0.54192E-03   -0.12698E-03 11160   0.283E-01    0.122E-01
DAV:   5    -0.192406721689E+03    0.34226E-04   -0.69197E-04 11080   0.228E-01
  14 F= -.19240672E+03 E0= -.19233902E+03  d E =-.151814E-01
       N       E                     dE             d eps       ncg     rms          rms(c)
DAV:   1    -0.192420477100E+03   -0.13721E-01   -0.19202E+00  8160   0.294E+00    0.328E-01
DAV:   2    -0.192429024339E+03   -0.85472E-02   -0.70958E-02 12360   0.105E+00    0.635E-01
DAV:   3    -0.192425251806E+03    0.37725E-02   -0.10219E-02 12120   0.903E-01    0.295E-01
DAV:   4    -0.192424094372E+03    0.11574E-02   -0.14580E-03 11720   0.289E-01    0.963E-02
DAV:   5    -0.192424534853E+03   -0.44048E-03   -0.12601E-03 12680   0.269E-01    0.199E-01
DAV:   6    -0.192424036510E+03    0.49834E-03   -0.84232E-04 10560   0.249E-01    0.451E-02
DAV:   7    -0.192424008835E+03    0.27675E-04   -0.82582E-05  6320   0.552E-02
  15 F= -.19242401E+03 E0= -.19235756E+03  d E =-.172871E-01
       N       E                     dE             d eps       ncg     rms          rms(c)
DAV:   1    -0.192435285793E+03   -0.11249E-01   -0.24652E+00  8160   0.335E+00    0.402E-01
DAV:   2    -0.192446444761E+03   -0.11159E-01   -0.11169E-01 12240   0.123E+00    0.677E-01
DAV:   3    -0.192443056237E+03    0.33885E-02   -0.15660E-02 12400   0.109E+00    0.422E-01
DAV:   4    -0.192440820217E+03    0.22360E-02   -0.31392E-03 12400   0.456E-01    0.156E-01
DAV:   5    -0.192440893830E+03   -0.73614E-04   -0.17745E-03 11960   0.303E-01    0.199E-01
DAV:   6    -0.192440614840E+03    0.27899E-03   -0.15509E-03 12280   0.324E-01    0.118E-01
DAV:   7    -0.192440367470E+03    0.24737E-03   -0.41135E-04  9160   0.133E-01    0.234E-02
DAV:   8    -0.192440370819E+03   -0.33495E-05   -0.67341E-05  7480   0.470E-02
  16 F= -.19244037E+03 E0= -.19237465E+03  d E =-.163620E-01
       N       E                     dE             d eps       ncg     rms          rms(c)
DAV:   1    -0.192443672019E+03   -0.33045E-02   -0.50080E+00  8160   0.473E+00    0.511E-01
DAV:   2    -0.192465486360E+03   -0.21814E-01   -0.20408E-01 11920   0.165E+00    0.868E-01
DAV:   3    -0.192459562099E+03    0.59243E-02   -0.25456E-02 12120   0.139E+00    0.545E-01
DAV:   4    -0.192455917478E+03    0.36446E-02   -0.49524E-03 12480   0.570E-01    0.169E-01
DAV:   5    -0.192455794714E+03    0.12276E-03   -0.21635E-03 12360   0.257E-01    0.162E-01
DAV:   6    -0.192456039853E+03   -0.24514E-03   -0.19957E-03 11920   0.365E-01    0.220E-01
DAV:   7    -0.192455430364E+03    0.60949E-03   -0.88713E-04 10480   0.243E-01    0.497E-02
DAV:   8    -0.192455423087E+03    0.72770E-05   -0.10811E-04  6120   0.826E-02
  17 F= -.19245542E+03 E0= -.19239091E+03  d E =-.150523E-01
       N       E                     dE             d eps       ncg     rms          rms(c)
DAV:   1    -0.192457518103E+03   -0.20877E-02   -0.40949E-01  8160   0.135E+00    0.156E-01
DAV:   2    -0.192459235261E+03   -0.17172E-02   -0.20748E-02 10400   0.442E-01    0.167E-01
DAV:   3    -0.192459466365E+03   -0.23110E-03   -0.18841E-03 13120   0.383E-01    0.223E-01
DAV:   4    -0.192458855266E+03    0.61110E-03   -0.62887E-04  9760   0.239E-01    0.470E-02
DAV:   5    -0.192458902913E+03   -0.47647E-04   -0.23693E-04  7520   0.941E-02
  18 F= -.19245890E+03 E0= -.19239478E+03  d E =-.347983E-02
       N       E                     dE             d eps       ncg     rms          rms(c)
DAV:   1    -0.192459715433E+03   -0.86017E-03   -0.90854E-01  8160   0.201E+00    0.234E-01
DAV:   2    -0.192463539285E+03   -0.38239E-02   -0.46005E-02 10880   0.636E-01    0.249E-01
DAV:   3    -0.192463976091E+03   -0.43681E-03   -0.46358E-03 11920   0.567E-01    0.329E-01
DAV:   4    -0.192462667618E+03    0.13085E-02   -0.15947E-03 10480   0.355E-01    0.884E-02
DAV:   5    -0.192462804664E+03   -0.13705E-03   -0.59904E-04  9840   0.215E-01    0.137E-01
DAV:   6    -0.192462606837E+03    0.19783E-03   -0.54163E-04 10120   0.171E-01    0.449E-02
DAV:   7    -0.192462580861E+03    0.25976E-04   -0.81401E-05  6360   0.619E-02
  19 F= -.19246258E+03 E0= -.19239897E+03  d E =-.367795E-02
       N       E                     dE             d eps       ncg     rms          rms(c)
DAV:   1    -0.192463187340E+03   -0.58050E-03   -0.45523E-02  8160   0.464E-01    0.640E-02
DAV:   2    -0.192463295030E+03   -0.10769E-03   -0.22340E-03 10760   0.141E-01    0.500E-02
DAV:   3    -0.192463334760E+03   -0.39730E-04   -0.21520E-04  9560   0.127E-01
  20 F= -.19246333E+03 E0= -.19239979E+03  d E =-.753899E-03
