<?xml version="1.0" encoding="ISO-8859-1"?>
<modeling>
 <generator>
  <i name="program" type="string">vasp </i>
  <i name="version" type="string">5.4.1  </i>
  <i name="subversion" type="string">05Feb16 (build Jul 05 2020 17:13:04) complex                          parallel </i>
  <i name="platform" type="string">IFC91_ompi </i>
  <i name="date" type="string">2024 04 27 </i>
  <i name="time" type="string">14:36:51 </i>
 </generator>
 <incar>
  <i type="int" name="ISTART">     0</i>
  <i type="string" name="PREC">normal</i>
  <i type="string" name="ALGO"> Normal</i>
  <i type="int" name="ISPIN">     1</i>
  <i type="int" name="ICHARG">     2</i>
  <i type="int" name="IBRION">     1</i>
  <i type="int" name="NSW">   100</i>
  <i type="int" name="ISIF">     3</i>
  <i type="int" name="ISYM">     0</i>
  <i name="SYMPREC">      0.00000001</i>
  <i name="POTIM">      0.50000000</i>
  <i type="logical" name="LREAL"> F  </i>
  <i type="logical" name="LPLANE"> F  </i>
  <i type="int" name="ISMEAR">     0</i>
  <i type="logical" name="LWAVE"> F  </i>
  <i type="logical" name="LCHARG"> F  </i>
  <v type="int" name="KPOINT_BSE">    -1     0     0     0</v>
 </incar>
 <kpoints>
  <generation param="Gamma">
   <v type="int" name="divisions">       8        8        1 </v>
   <v name="usershift">      0.00000000       0.00000000       0.00000000 </v>
   <v name="genvec1">      0.12500000       0.00000000       0.00000000 </v>
   <v name="genvec2">     -0.00000000       0.12500000       0.00000000 </v>
   <v name="genvec3">      0.00000000       0.00000000       1.00000000 </v>
   <v name="shift">      0.00000000       0.00000000       0.00000000 </v>
  </generation>
  <varray name="kpointlist" >
   <v>       0.00000000       0.00000000       0.00000000 </v>
   <v>       0.12500000       0.00000000       0.00000000 </v>
   <v>       0.25000000       0.00000000       0.00000000 </v>
   <v>       0.37500000       0.00000000       0.00000000 </v>
   <v>       0.50000000       0.00000000       0.00000000 </v>
   <v>       0.00000000       0.12500000       0.00000000 </v>
   <v>       0.12500000       0.12500000       0.00000000 </v>
   <v>       0.25000000       0.12500000       0.00000000 </v>
   <v>       0.37500000       0.12500000       0.00000000 </v>
   <v>       0.50000000       0.12500000       0.00000000 </v>
   <v>      -0.37500000       0.12500000       0.00000000 </v>
   <v>      -0.25000000       0.12500000       0.00000000 </v>
   <v>      -0.12500000       0.12500000       0.00000000 </v>
   <v>       0.00000000       0.25000000       0.00000000 </v>
   <v>       0.12500000       0.25000000       0.00000000 </v>
   <v>       0.25000000       0.25000000       0.00000000 </v>
   <v>       0.37500000       0.25000000       0.00000000 </v>
   <v>       0.50000000       0.25000000       0.00000000 </v>
   <v>      -0.37500000       0.25000000       0.00000000 </v>
   <v>      -0.25000000       0.25000000       0.00000000 </v>
   <v>      -0.12500000       0.25000000       0.00000000 </v>
   <v>      -0.00000000       0.37500000       0.00000000 </v>
   <v>       0.12500000       0.37500000       0.00000000 </v>
   <v>       0.25000000       0.37500000       0.00000000 </v>
   <v>       0.37500000       0.37500000       0.00000000 </v>
   <v>       0.50000000       0.37500000       0.00000000 </v>
   <v>      -0.37500000       0.37500000       0.00000000 </v>
   <v>      -0.25000000       0.37500000       0.00000000 </v>
   <v>      -0.12500000       0.37500000       0.00000000 </v>
   <v>       0.00000000       0.50000000       0.00000000 </v>
   <v>       0.12500000       0.50000000       0.00000000 </v>
   <v>       0.25000000       0.50000000       0.00000000 </v>
   <v>       0.37500000       0.50000000       0.00000000 </v>
   <v>       0.50000000       0.50000000       0.00000000 </v>
  </varray>
  <varray name="weights" >
   <v>       0.01562500 </v>
   <v>       0.03125000 </v>
   <v>       0.03125000 </v>
   <v>       0.03125000 </v>
   <v>       0.01562500 </v>
   <v>       0.03125000 </v>
   <v>       0.03125000 </v>
   <v>       0.03125000 </v>
   <v>       0.03125000 </v>
   <v>       0.03125000 </v>
   <v>       0.03125000 </v>
   <v>       0.03125000 </v>
   <v>       0.03125000 </v>
   <v>       0.03125000 </v>
   <v>       0.03125000 </v>
   <v>       0.03125000 </v>
   <v>       0.03125000 </v>
   <v>       0.03125000 </v>
   <v>       0.03125000 </v>
   <v>       0.03125000 </v>
   <v>       0.03125000 </v>
   <v>       0.03125000 </v>
   <v>       0.03125000 </v>
   <v>       0.03125000 </v>
   <v>       0.03125000 </v>
   <v>       0.03125000 </v>
   <v>       0.03125000 </v>
   <v>       0.03125000 </v>
   <v>       0.03125000 </v>
   <v>       0.01562500 </v>
   <v>       0.03125000 </v>
   <v>       0.03125000 </v>
   <v>       0.03125000 </v>
   <v>       0.01562500 </v>
  </varray>
 </kpoints>
 <parameters>
  <separator name="general" >
   <i type="string" name="SYSTEM">unknown system</i>
   <i type="logical" name="LCOMPAT"> F  </i>
  </separator>
  <separator name="electronic" >
   <i type="string" name="PREC">normal</i>
   <i name="ENMAX">    280.00000000</i>
   <i name="ENAUG">    373.43800000</i>
   <i name="EDIFF">      0.00010000</i>
   <i type="int" name="IALGO">    38</i>
   <i type="int" name="IWAVPR">    11</i>
   <i type="int" name="NBANDS">   120</i>
   <i name="NELECT">    159.00000000</i>
   <i type="int" name="TURBO">     0</i>
   <i type="int" name="IRESTART">     0</i>
   <i type="int" name="NREBOOT">     0</i>
   <i type="int" name="NMIN">     0</i>
   <i name="EREF">      0.00000000</i>
   <separator name="electronic smearing" >
    <i type="int" name="ISMEAR">     0</i>
    <i name="SIGMA">      0.20000000</i>
    <i name="KSPACING">      0.50000000</i>
    <i type="logical" name="KGAMMA"> T  </i>
   </separator>
   <separator name="electronic projectors" >
    <i type="logical" name="LREAL"> F  </i>
    <v name="ROPT">      0.00000000      0.00000000      0.00000000      0.00000000</v>
    <i type="int" name="LMAXPAW">  -100</i>
    <i type="int" name="LMAXMIX">     2</i>
    <i type="logical" name="NLSPLINE"> F  </i>
   </separator>
   <separator name="electronic startup" >
    <i type="int" name="ISTART">     0</i>
    <i type="int" name="ICHARG">     2</i>
    <i type="int" name="INIWAV">     1</i>
   </separator>
   <separator name="electronic spin" >
    <i type="int" name="ISPIN">     1</i>
    <i type="logical" name="LNONCOLLINEAR"> F  </i>
    <v name="MAGMOM">      1.00000000      1.00000000      1.00000000      1.00000000      1.00000000      1.00000000      1.00000000      1.00000000      1.00000000      1.00000000      1.00000000      1.00000000      1.00000000      1.00000000      1.00000000      1.00000000      1.00000000      1.00000000      1.00000000      1.00000000
      1.00000000      1.00000000      1.00000000      1.00000000      1.00000000      1.00000000      1.00000000</v>
    <i name="NUPDOWN">     -1.00000000</i>
    <i type="logical" name="LSORBIT"> F  </i>
    <v name="SAXIS">      0.00000000      0.00000000      1.00000000</v>
    <i type="logical" name="LSPIRAL"> F  </i>
    <v name="QSPIRAL">      0.00000000      0.00000000      0.00000000</v>
    <i type="logical" name="LZEROZ"> F  </i>
   </separator>
   <separator name="electronic exchange-correlation" >
    <i type="logical" name="LASPH"> F  </i>
    <i type="logical" name="LMETAGGA"> F  </i>
   </separator>
   <separator name="electronic convergence" >
    <i type="int" name="NELM">    60</i>
    <i type="int" name="NELMDL">    -5</i>
    <i type="int" name="NELMIN">     2</i>
    <i name="ENINI">    280.00000000</i>
    <separator name="electronic convergence detail" >
     <i type="logical" name="LDIAG"> T  </i>
     <i type="logical" name="LSUBROT"> F  </i>
     <i name="WEIMIN">      0.00100000</i>
     <i name="EBREAK">      0.00000021</i>
     <i name="DEPER">      0.30000000</i>
     <i type="int" name="NRMM">     4</i>
     <i name="TIME">      0.40000000</i>
    </separator>
   </separator>
   <separator name="electronic mixer" >
    <i name="AMIX">      0.40000000</i>
    <i name="BMIX">      1.00000000</i>
    <i name="AMIN">      0.10000000</i>
    <i name="AMIX_MAG">      1.60000000</i>
    <i name="BMIX_MAG">      1.00000000</i>
    <separator name="electronic mixer details" >
     <i type="int" name="IMIX">     4</i>
     <i type="logical" name="MIXFIRST"> F  </i>
     <i type="int" name="MAXMIX">   -45</i>
     <i name="WC">    100.00000000</i>
     <i type="int" name="INIMIX">     1</i>
     <i type="int" name="MIXPRE">     1</i>
     <i type="int" name="MREMOVE">     5</i>
    </separator>
   </separator>
   <separator name="electronic dipolcorrection" >
    <i type="logical" name="LDIPOL"> F  </i>
    <i type="logical" name="LMONO"> F  </i>
    <i type="int" name="IDIPOL">     0</i>
    <i name="EPSILON">      1.00000000</i>
    <v name="DIPOL">   -100.00000000   -100.00000000   -100.00000000</v>
    <i name="EFIELD">      0.00000000</i>
   </separator>
  </separator>
  <separator name="grids" >
   <i type="int" name="NGX">    42</i>
   <i type="int" name="NGY">    42</i>
   <i type="int" name="NGZ">   126</i>
   <i type="int" name="NGXF">    84</i>
   <i type="int" name="NGYF">    84</i>
   <i type="int" name="NGZF">   252</i>
   <i type="logical" name="ADDGRID"> F  </i>
  </separator>
  <separator name="ionic" >
   <i type="int" name="NSW">   100</i>
   <i type="int" name="IBRION">     1</i>
   <i type="int" name="ISIF">     3</i>
   <i name="PSTRESS">      0.00000000</i>
   <i name="EDIFFG">      0.00100000</i>
   <i type="int" name="NFREE">     0</i>
   <i name="POTIM">      0.50000000</i>
   <i name="SMASS">     -3.00000000</i>
   <i name="SCALEE">      1.00000000</i>
  </separator>
  <separator name="ionic md" >
   <i name="TEBEG">      0.00010000</i>
   <i name="TEEND">      0.00010000</i>
   <i type="int" name="NBLOCK">     1</i>
   <i type="int" name="KBLOCK">   100</i>
   <i type="int" name="NPACO">   256</i>
   <i name="APACO">     16.00000000</i>
  </separator>
  <separator name="symmetry" >
   <i type="int" name="ISYM">     0</i>
   <i name="SYMPREC">      0.00000001</i>
  </separator>
  <separator name="dos" >
   <i type="logical" name="LORBIT"> F  </i>
   <v name="RWIGS">     -1.00000000     -1.00000000     -1.00000000     -1.00000000</v>
   <i type="int" name="NEDOS">   301</i>
   <i name="EMIN">     10.00000000</i>
   <i name="EMAX">    -10.00000000</i>
   <i name="EFERMI">      0.00000000</i>
  </separator>
  <separator name="writing" >
   <i type="int" name="NWRITE">     2</i>
   <i type="logical" name="LWAVE"> F  </i>
   <i type="logical" name="LCHARG"> F  </i>
   <i type="logical" name="LPARD"> F  </i>
   <i type="logical" name="LVTOT"> F  </i>
   <i type="logical" name="LVHAR"> F  </i>
   <i type="logical" name="LELF"> F  </i>
   <i type="logical" name="LOPTICS"> F  </i>
   <v name="STM">      0.00000000      0.00000000      0.00000000      0.00000000      0.00000000      0.00000000      0.00000000</v>
  </separator>
  <separator name="performance" >
   <i type="int" name="NPAR">    40</i>
   <i type="int" name="NSIM">     4</i>
   <i type="int" name="NBLK">    -1</i>
   <i type="logical" name="LPLANE"> F  </i>
   <i type="logical" name="LSCALAPACK"> T  </i>
   <i type="logical" name="LSCAAWARE"> F  </i>
   <i type="logical" name="LSCALU"> F  </i>
   <i type="logical" name="LASYNC"> F  </i>
   <i type="logical" name="LORBITALREAL"> F  </i>
  </separator>
  <separator name="miscellaneous" >
   <i type="int" name="IDIOT">     3</i>
   <i type="logical" name="LMUSIC"> F  </i>
   <v name="POMASS">     50.94100000     95.94000000    183.85000000     32.06600000</v>
   <v name="DARWINR">      0.00000000      0.00000000      0.00000000      0.00000000</v>
   <v name="DARWINV">      1.00000000      1.00000000      1.00000000      1.00000000</v>
   <i type="logical" name="LCORR"> T  </i>
  </separator>
  <i type="logical" name="GGA_COMPAT"> T  </i>
  <i type="logical" name="LBERRY"> F  </i>
  <i type="int" name="ICORELEVEL">     0</i>
  <i type="logical" name="LDAU"> F  </i>
  <i type="int" name="I_CONSTRAINED_M">     0</i>
  <separator name="electronic exchange-correlation" >
   <i type="string" name="GGA">--</i>
   <i type="int" name="VOSKOWN">     0</i>
   <i type="logical" name="LHFCALC"> F  </i>
   <i type="string" name="PRECFOCK"></i>
   <i type="logical" name="LSYMGRAD"> F  </i>
   <i type="logical" name="LHFONE"> F  </i>
   <i type="logical" name="LRHFCALC"> F  </i>
   <i type="logical" name="LTHOMAS"> F  </i>
   <i type="logical" name="LMODELHF"> F  </i>
   <i name="ENCUT4O">     -1.00000000</i>
   <i type="int" name="EXXOEP">     0</i>
   <i type="int" name="FOURORBIT">     0</i>
   <i name="AEXX">      0.00000000</i>
   <i name="HFALPHA">      0.00000000</i>
   <i name="MCALPHA">      0.00000000</i>
   <i name="ALDAX">      1.00000000</i>
   <i name="AGGAX">      1.00000000</i>
   <i name="ALDAC">      1.00000000</i>
   <i name="AGGAC">      1.00000000</i>
   <i type="int" name="NKREDX">     1</i>
   <i type="int" name="NKREDY">     1</i>
   <i type="int" name="NKREDZ">     1</i>
   <i type="logical" name="SHIFTRED"> F  </i>
   <i type="logical" name="ODDONLY"> F  </i>
   <i type="logical" name="EVENONLY"> F  </i>
   <i type="int" name="LMAXFOCK">     0</i>
   <i type="int" name="NMAXFOCKAE">     0</i>
   <i type="logical" name="LFOCKAEDFT"> F  </i>
   <i name="HFSCREEN">      0.00000000</i>
   <i name="HFSCREENC">      0.00000000</i>
   <i type="int" name="NBANDSGWLOW">     0</i>
  </separator>
  <separator name="vdW DFT" >
   <i type="logical" name="LUSE_VDW"> F  </i>
   <i name="Zab_VDW">     -0.84910000</i>
   <i name="PARAM1">      0.12340000</i>
   <i name="PARAM2">      1.00000000</i>
   <i name="PARAM3">      0.00000000</i>
  </separator>
  <separator name="model GW" >
   <i type="int" name="MODEL_GW">     0</i>
   <i name="MODEL_EPS0">     58.26239943</i>
   <i name="MODEL_ALPHA">      1.00000000</i>
  </separator>
  <separator name="linear response parameters" >
   <i type="logical" name="LEPSILON"> F  </i>
   <i type="logical" name="LRPA"> F  </i>
   <i type="logical" name="LNABLA"> F  </i>
   <i type="logical" name="LVEL"> F  </i>
   <i type="int" name="KINTER">     0</i>
   <i name="CSHIFT">      0.10000000</i>
   <i name="OMEGAMAX">     -1.00000000</i>
   <i name="DEG_THRESHOLD">      0.00200000</i>
  </separator>
  <separator name="orbital magnetization" >
   <i type="logical" name="NUCIND"> F  </i>
   <v name="MAGPOS">      0.00000000      0.00000000      0.00000000</v>
   <i type="logical" name="LNICSALL"> T  </i>
   <i type="logical" name="ORBITALMAG"> F  </i>
   <i type="logical" name="LMAGBLOCH"> F  </i>
   <i type="logical" name="LCHIMAG"> F  </i>
   <i type="logical" name="LGAUGE"> T  </i>
   <i type="int" name="MAGATOM">     0</i>
   <v name="MAGDIPOL">      0.00000000      0.00000000      0.00000000</v>
   <v name="AVECCONST">      0.00000000      0.00000000      0.00000000</v>
  </separator>
  <separator name="response functions" >
   <i type="logical" name="LADDER"> F  </i>
   <i type="logical" name="LFXC"> F  </i>
   <i type="logical" name="LHARTREE"> T  </i>
   <i type="int" name="IBSE">     0</i>
   <v type="int" name="KPOINT">    -1     0     0     0</v>
   <i type="logical" name="LTCTE"> F  </i>
   <i type="logical" name="LTETE"> F  </i>
   <i type="logical" name="LTRIPLET"> F  </i>
   <i type="logical" name="LFXCEPS"> F  </i>
   <i type="logical" name="LFXHEG"> F  </i>
   <i type="int" name="NATURALO">     0</i>
   <i type="logical" name="L2ORDER"> F  </i>
   <i type="logical" name="LUSEW"> F  </i>
   <i name="ENCUTGW">     -2.00000000</i>
   <i name="ENCUTGWSOFT">     -2.00000000</i>
   <i name="ENCUTLF">     -1.00000000</i>
   <i type="int" name="LMAXMP2">    -1</i>
   <i name="SCISSOR">      0.00000000</i>
   <i type="int" name="NOMEGA">     0</i>
   <i type="int" name="NOMEGAR">     0</i>
   <i type="int" name="NBANDSGW">    -1</i>
   <i type="int" name="NBANDSO">    -1</i>
   <i type="int" name="NBANDSV">    -1</i>
   <i type="int" name="NELM">     1</i>
   <i type="int" name="NELMHF">     1</i>
   <i type="int" name="DIM">     3</i>
   <i type="int" name="ANTIRES">     0</i>
   <i name="OMEGAMAX">    -30.00000000</i>
   <i name="OMEGAMIN">    -30.00000000</i>
   <i name="OMEGATL">   -200.00000000</i>
   <i type="int" name="OMEGAGRID">     0</i>
   <i name="CSHIFT">     -0.10000000</i>
   <i type="logical" name="SELFENERGY"> F  </i>
   <i type="logical" name="LSPECTRAL"> F  </i>
   <i type="logical" name="LSPECTRALGW"> F  </i>
   <i type="logical" name="LSINGLES"> F  </i>
   <i type="logical" name="LFERMIGW"> F  </i>
   <i type="logical" name="ODDONLYGW"> F  </i>
   <i type="logical" name="EVENONLYGW"> F  </i>
   <i type="int" name="NKREDLFX">     1</i>
   <i type="int" name="NKREDLFY">     1</i>
   <i type="int" name="NKREDLFZ">     1</i>
   <i type="int" name="MAXMEM">  1800</i>
   <i type="int" name="TELESCOPE">     0</i>
   <i type="int" name="TAUPAR">     1</i>
   <i type="int" name="OMEGAPAR">    -1</i>
   <i name="LAMBDA">      1.00000000</i>
  </separator>
  <separator name="External order field" >
   <i name="OFIELD_KAPPA">      0.00000000</i>
   <v name="OFIELD_K">      0.00000000      0.00000000      0.00000000</v>
   <i name="OFIELD_Q6_NEAR">      0.00000000</i>
   <i name="OFIELD_Q6_FAR">      0.00000000</i>
   <i name="OFIELD_A">      0.00000000</i>
  </separator>
 </parameters>
 <atominfo>
  <atoms>      27 </atoms>
  <types>       4 </types>
  <array name="atoms" >
   <dimension dim="1">ion</dimension>
   <field type="string">element</field>
   <field type="int">atomtype</field>
   <set>
    <rc><c>V </c><c>   1</c></rc>
    <rc><c>V </c><c>   1</c></rc>
    <rc><c>V </c><c>   1</c></rc>
    <rc><c>Mo</c><c>   2</c></rc>
    <rc><c>Mo</c><c>   2</c></rc>
    <rc><c>Mo</c><c>   2</c></rc>
    <rc><c>W </c><c>   3</c></rc>
    <rc><c>W </c><c>   3</c></rc>
    <rc><c>W </c><c>   3</c></rc>
    <rc><c>S </c><c>   4</c></rc>
    <rc><c>S </c><c>   4</c></rc>
    <rc><c>S </c><c>   4</c></rc>
    <rc><c>S </c><c>   4</c></rc>
    <rc><c>S </c><c>   4</c></rc>
    <rc><c>S </c><c>   4</c></rc>
    <rc><c>S </c><c>   4</c></rc>
    <rc><c>S </c><c>   4</c></rc>
    <rc><c>S </c><c>   4</c></rc>
    <rc><c>S </c><c>   4</c></rc>
    <rc><c>S </c><c>   4</c></rc>
    <rc><c>S </c><c>   4</c></rc>
    <rc><c>S </c><c>   4</c></rc>
    <rc><c>S </c><c>   4</c></rc>
    <rc><c>S </c><c>   4</c></rc>
    <rc><c>S </c><c>   4</c></rc>
    <rc><c>S </c><c>   4</c></rc>
    <rc><c>S </c><c>   4</c></rc>
   </set>
  </array>
  <array name="atomtypes" >
   <dimension dim="1">type</dimension>
   <field type="int">atomspertype</field>
   <field type="string">element</field>
   <field>mass</field>
   <field>valence</field>
   <field type="string">pseudopotential</field>
   <set>
    <rc><c>   3</c><c>V </c><c>     50.94100000</c><c>      5.00000000</c><c> PAW_PBE V 08Apr2002                    </c></rc>
    <rc><c>   3</c><c>Mo</c><c>     95.94000000</c><c>      6.00000000</c><c> PAW_PBE Mo 08Apr2002                   </c></rc>
    <rc><c>   3</c><c>W </c><c>    183.85000000</c><c>      6.00000000</c><c> PAW_PBE W 08Apr2002                    </c></rc>
    <rc><c>  18</c><c>S </c><c>     32.06600000</c><c>      6.00000000</c><c>  PAW_PBE S 17Jan2003                   </c></rc>
   </set>
  </array>
 </atominfo>
 <structure name="initialpos" >
  <crystal>
   <varray name="basis" >
    <v>       8.66999996       5.03999989       0.00000000 </v>
    <v>      -8.66999982       5.04000013       0.00000000 </v>
    <v>       0.00000000       0.00000000      30.00000000 </v>
   </varray>
   <i name="volume">   2621.80797419 </i>
   <varray name="rec_basis" >
    <v>       0.05767013       0.09920635       0.00000000 </v>
    <v>      -0.05767013       0.09920635       0.00000000 </v>
    <v>       0.00000000       0.00000000       0.03333333 </v>
   </varray>
  </crystal>
  <varray name="positions" >
   <v>       0.66666669       0.00000000       0.00000000 </v>
   <v>       0.00000000       0.00000000       0.00000000 </v>
   <v>       0.00000000       0.66666669       0.00000000 </v>
   <v>       0.33333334       0.33333334       0.00000000 </v>
   <v>       0.33333334       0.66666669       0.00000000 </v>
   <v>       0.33333334       0.00000000       0.00000000 </v>
   <v>       1.00000000       0.33333334       0.00000000 </v>
   <v>       0.66666669       0.33333334       0.00000000 </v>
   <v>       0.66666669       0.66666669       0.00000000 </v>
   <v>       0.11068511       0.22244981       0.95539999 </v>
   <v>       0.22244981       0.11068511       0.04460000 </v>
   <v>       0.11068511       0.55578315       0.95539999 </v>
   <v>       0.22244981       0.44401845       0.04460000 </v>
   <v>       0.11068511       0.88911647       0.95539999 </v>
   <v>       0.22244981       0.77735180       0.04460000 </v>
   <v>       0.44401845       0.22244981       0.95539999 </v>
   <v>       0.55578315       0.11068511       0.04460000 </v>
   <v>       0.44401845       0.55578315       0.95539999 </v>
   <v>       0.55578315       0.44401845       0.04460000 </v>
   <v>       0.44401845       0.88911647       0.95539999 </v>
   <v>       0.55578315       0.77735180       0.04460000 </v>
   <v>       0.77735180       0.22244981       0.95539999 </v>
   <v>       0.88911647       0.11068511       0.04460000 </v>
   <v>       0.77735180       0.55578315       0.95539999 </v>
   <v>       0.88911647       0.44401845       0.04460000 </v>
   <v>       0.77735180       0.88911647       0.95539999 </v>
   <v>       0.88911647       0.77735180       0.04460000 </v>
  </varray>
 </structure>
 <calculation>
  <scstep>
   <time name="dav">   23.10   23.16</time>
   <time name="total">   23.14   23.21</time>
   <energy>
    <i name="alphaZ">     81.65567618 </i>
    <i name="ewald">  41890.25208822 </i>
    <i name="hartreedc"> -47722.88003592 </i>
    <i name="XCdc">   -242.92955968 </i>
    <i name="pawpsdc">   3467.42045192 </i>
    <i name="pawaedc">  -2871.19716117 </i>
    <i name="eentropy">     -0.53153725 </i>
    <i name="bandstr">   -237.49694189 </i>
    <i name="atom">   6761.44252427 </i>
    <i name="e_fr_energy">   1125.73550468 </i>
    <i name="e_wo_entrp">   1126.26704193 </i>
    <i name="e_0_energy">   1126.00127330 </i>
   </energy>
  </scstep>
  <scstep>
   <time name="dav">   29.81   29.89</time>
   <time name="total">   29.82   29.90</time>
   <energy>
    <i name="e_fr_energy">     -3.71691167 </i>
    <i name="e_wo_entrp">     -3.53663626 </i>
    <i name="e_0_energy">     -3.62677396 </i>
   </energy>
  </scstep>
  <scstep>
   <time name="dav">   29.09   29.16</time>
   <time name="total">   29.09   29.17</time>
   <energy>
    <i name="e_fr_energy">   -199.58363267 </i>
    <i name="e_wo_entrp">   -199.32361342 </i>
    <i name="e_0_energy">   -199.45362304 </i>
   </energy>
  </scstep>
  <scstep>
   <time name="dav">   32.00   32.08</time>
   <time name="total">   32.01   32.09</time>
   <energy>
    <i name="e_fr_energy">   -208.94596347 </i>
    <i name="e_wo_entrp">   -208.64685583 </i>
    <i name="e_0_energy">   -208.79640965 </i>
   </energy>
  </scstep>
  <scstep>
   <time name="dav">   30.36   30.43</time>
   <time name="total">   30.82   30.90</time>
   <energy>
    <i name="e_fr_energy">   -209.27575171 </i>
    <i name="e_wo_entrp">   -208.97966095 </i>
    <i name="e_0_energy">   -209.12770633 </i>
   </energy>
  </scstep>
  <scstep>
   <time name="dav">   33.00   33.08</time>
   <time name="total">   33.50   33.59</time>
   <energy>
    <i name="e_fr_energy">   -237.13344306 </i>
    <i name="e_wo_entrp">   -236.86463390 </i>
    <i name="e_0_energy">   -236.99903848 </i>
   </energy>
  </scstep>
  <scstep>
   <time name="dav">   33.93   34.01</time>
   <time name="total">   34.44   34.53</time>
   <energy>
    <i name="e_fr_energy">   -196.66498098 </i>
    <i name="e_wo_entrp">   -196.32951249 </i>
    <i name="e_0_energy">   -196.49724673 </i>
   </energy>
  </scstep>
  <scstep>
   <time name="dav">   30.88   30.96</time>
   <time name="total">   31.39   31.48</time>
   <energy>
    <i name="e_fr_energy">   -190.08249348 </i>
    <i name="e_wo_entrp">   -189.81369701 </i>
    <i name="e_0_energy">   -189.94809525 </i>
   </energy>
  </scstep>
  <scstep>
   <time name="dav">   31.84   31.92</time>
   <time name="total">   32.37   32.45</time>
   <energy>
    <i name="e_fr_energy">   -188.31838807 </i>
    <i name="e_wo_entrp">   -187.98907552 </i>
    <i name="e_0_energy">   -188.15373179 </i>
   </energy>
  </scstep>
  <scstep>
   <time name="dav">   34.21   34.30</time>
   <time name="total">   34.74   34.84</time>
   <energy>
    <i name="e_fr_energy">   -187.12728724 </i>
    <i name="e_wo_entrp">   -186.78499288 </i>
    <i name="e_0_energy">   -186.95614006 </i>
   </energy>
  </scstep>
  <scstep>
   <time name="dav">   32.66   32.74</time>
   <time name="total">   33.20   33.29</time>
   <energy>
    <i name="e_fr_energy">   -187.01252364 </i>
    <i name="e_wo_entrp">   -186.66383061 </i>
    <i name="e_0_energy">   -186.83817712 </i>
   </energy>
  </scstep>
  <scstep>
   <time name="dav">   33.06   33.14</time>
   <time name="total">   33.60   33.69</time>
   <energy>
    <i name="e_fr_energy">   -187.03325320 </i>
    <i name="e_wo_entrp">   -186.69966126 </i>
    <i name="e_0_energy">   -186.86645723 </i>
   </energy>
  </scstep>
  <scstep>
   <time name="dav">   34.24   34.33</time>
   <time name="total">   34.78   34.87</time>
   <energy>
    <i name="e_fr_energy">   -186.93363225 </i>
    <i name="e_wo_entrp">   -186.59757860 </i>
    <i name="e_0_energy">   -186.76560543 </i>
   </energy>
  </scstep>
  <scstep>
   <time name="dav">   33.16   33.23</time>
   <time name="total">   33.69   33.78</time>
   <energy>
    <i name="e_fr_energy">   -186.90414162 </i>
    <i name="e_wo_entrp">   -186.56310869 </i>
    <i name="e_0_energy">   -186.73362515 </i>
   </energy>
  </scstep>
  <scstep>
   <time name="dav">   32.18   32.26</time>
   <time name="total">   32.71   32.80</time>
   <energy>
    <i name="e_fr_energy">   -186.89841222 </i>
    <i name="e_wo_entrp">   -186.55542446 </i>
    <i name="e_0_energy">   -186.72691834 </i>
   </energy>
  </scstep>
  <scstep>
   <time name="dav">   33.07   33.15</time>
   <time name="total">   33.61   33.69</time>
   <energy>
    <i name="e_fr_energy">   -186.89182003 </i>
    <i name="e_wo_entrp">   -186.54844111 </i>
    <i name="e_0_energy">   -186.72013057 </i>
   </energy>
  </scstep>
  <scstep>
   <time name="dav">   33.10   33.18</time>
   <time name="total">   33.64   33.72</time>
   <energy>
    <i name="e_fr_energy">   -186.88911600 </i>
    <i name="e_wo_entrp">   -186.54780797 </i>
    <i name="e_0_energy">   -186.71846198 </i>
   </energy>
  </scstep>
  <scstep>
   <time name="dav">   30.56   30.63</time>
   <time name="total">   31.10   31.18</time>
   <energy>
    <i name="e_fr_energy">   -186.88858603 </i>
    <i name="e_wo_entrp">   -186.54738686 </i>
    <i name="e_0_energy">   -186.71798645 </i>
   </energy>
  </scstep>
  <scstep>
   <time name="dav">   29.07   29.14</time>
   <time name="total">   29.61   29.69</time>
   <energy>
    <i name="e_fr_energy">   -186.88837585 </i>
    <i name="e_wo_entrp">   -186.54673450 </i>
    <i name="e_0_energy">   -186.71755518 </i>
   </energy>
  </scstep>
  <scstep>
   <time name="dav">   25.28   25.34</time>
   <time name="total">   25.82   25.89</time>
   <energy>
    <i name="e_fr_energy">   -186.88926274 </i>
    <i name="e_wo_entrp">   -186.54793678 </i>
    <i name="e_0_energy">   -186.71859976 </i>
   </energy>
  </scstep>
  <scstep>
   <time name="dav">   23.29   23.34</time>
   <time name="total">   23.82   23.89</time>
   <energy>
    <i name="e_fr_energy">   -186.89020268 </i>
    <i name="e_wo_entrp">   -186.54874696 </i>
    <i name="e_0_energy">   -186.71947482 </i>
   </energy>
  </scstep>
  <scstep>
   <time name="dav">   19.39   19.44</time>
   <time name="total">   19.93   19.99</time>
   <energy>
    <i name="e_fr_energy">   -186.89095375 </i>
    <i name="e_wo_entrp">   -186.54954290 </i>
    <i name="e_0_energy">   -186.72024832 </i>
   </energy>
  </scstep>
  <scstep>
   <time name="dav">   21.74   21.79</time>
   <time name="total">   22.28   22.34</time>
   <energy>
    <i name="e_fr_energy">   -186.89209345 </i>
    <i name="e_wo_entrp">   -186.55079477 </i>
    <i name="e_0_energy">   -186.72144411 </i>
   </energy>
  </scstep>
  <scstep>
   <time name="dav">   20.26   20.31</time>
   <time name="total">   20.79   20.85</time>
   <energy>
    <i name="e_fr_energy">   -186.89267463 </i>
    <i name="e_wo_entrp">   -186.55131377 </i>
    <i name="e_0_energy">   -186.72199420 </i>
   </energy>
  </scstep>
  <scstep>
   <time name="dav">   17.63   17.68</time>
   <time name="total">   18.17   18.22</time>
   <energy>
    <i name="e_fr_energy">   -186.89304084 </i>
    <i name="e_wo_entrp">   -186.55165428 </i>
    <i name="e_0_energy">   -186.72234756 </i>
   </energy>
  </scstep>
  <scstep>
   <time name="dav">   20.25   20.30</time>
   <time name="total">   20.79   20.84</time>
   <energy>
    <i name="e_fr_energy">   -186.89328747 </i>
    <i name="e_wo_entrp">   -186.55192359 </i>
    <i name="e_0_energy">   -186.72260553 </i>
   </energy>
  </scstep>
  <scstep>
   <time name="dav">   21.35   21.40</time>
   <time name="total">   21.38   21.44</time>
   <energy>
    <i name="alphaZ">     81.65567618 </i>
    <i name="ewald">  41890.25208822 </i>
    <i name="hartreedc"> -47833.18047792 </i>
    <i name="XCdc">   -231.59805655 </i>
    <i name="pawpsdc">   4192.17142657 </i>
    <i name="pawaedc">  -3610.19605977 </i>
    <i name="eentropy">     -0.34136708 </i>
    <i name="bandstr">  -1437.09913407 </i>
    <i name="atom">   6761.44252427 </i>
    <i name="e_fr_energy">   -186.89338015 </i>
    <i name="e_wo_entrp">   -186.55201307 </i>
    <i name="e_0_energy">   -186.72269661 </i>
   </energy>
  </scstep>
  <structure>
   <crystal>
    <varray name="basis" >
     <v>       8.66999996       5.03999989       0.00000000 </v>
     <v>      -8.66999982       5.04000013       0.00000000 </v>
     <v>       0.00000000       0.00000000      30.00000000 </v>
    </varray>
    <i name="volume">   2621.80797419 </i>
    <varray name="rec_basis" >
     <v>       0.05767013       0.09920635       0.00000000 </v>
     <v>      -0.05767013       0.09920635       0.00000000 </v>
     <v>       0.00000000       0.00000000       0.03333333 </v>
    </varray>
   </crystal>
   <varray name="positions" >
    <v>       0.66666669       0.00000000       0.00000000 </v>
    <v>       0.00000000       0.00000000       0.00000000 </v>
    <v>       0.00000000       0.66666669       0.00000000 </v>
    <v>       0.33333334       0.33333334       0.00000000 </v>
    <v>       0.33333334       0.66666669       0.00000000 </v>
    <v>       0.33333334       0.00000000       0.00000000 </v>
    <v>       1.00000000       0.33333334       0.00000000 </v>
    <v>       0.66666669       0.33333334       0.00000000 </v>
    <v>       0.66666669       0.66666669       0.00000000 </v>
    <v>       0.11068511       0.22244981       0.95539999 </v>
    <v>       0.22244981       0.11068511       0.04460000 </v>
    <v>       0.11068511       0.55578315       0.95539999 </v>
    <v>       0.22244981       0.44401845       0.04460000 </v>
    <v>       0.11068511       0.88911647       0.95539999 </v>
    <v>       0.22244981       0.77735180       0.04460000 </v>
    <v>       0.44401845       0.22244981       0.95539999 </v>
    <v>       0.55578315       0.11068511       0.04460000 </v>
    <v>       0.44401845       0.55578315       0.95539999 </v>
    <v>       0.55578315       0.44401845       0.04460000 </v>
    <v>       0.44401845       0.88911647       0.95539999 </v>
    <v>       0.55578315       0.77735180       0.04460000 </v>
    <v>       0.77735180       0.22244981       0.95539999 </v>
    <v>       0.88911647       0.11068511       0.04460000 </v>
    <v>       0.77735180       0.55578315       0.95539999 </v>
    <v>       0.88911647       0.44401845       0.04460000 </v>
    <v>       0.77735180       0.88911647       0.95539999 </v>
    <v>       0.88911647       0.77735180       0.04460000 </v>
   </varray>
  </structure>
  <varray name="forces" >
   <v>      -0.14529855      -0.31852663       0.07999568 </v>
   <v>       0.20396639       0.27399705       0.00839664 </v>
   <v>       0.14948243       0.39298926      -0.08828374 </v>
   <v>       0.01701480       0.01582093       0.02391807 </v>
   <v>      -0.01633736      -0.00974740      -0.11169834 </v>
   <v>      -0.01315228      -0.03712411      -0.01479877 </v>
   <v>       0.32131700       0.38301914       0.03411788 </v>
   <v>      -0.26571470      -0.47668000       0.11555245 </v>
   <v>      -0.28244652      -0.30127750      -0.00406610 </v>
   <v>       0.36815461      -0.68949807      -2.17488722 </v>
   <v>      -0.52661427      -0.68546944       2.14100146 </v>
   <v>      -0.68763481      -0.13511269      -2.16008848 </v>
   <v>      -0.19153710      -0.15707197       2.88302397 </v>
   <v>      -0.31402811      -0.68735308      -1.44226816 </v>
   <v>      -0.53136990      -0.68314293       2.14267940 </v>
   <v>       0.18868906       0.14223511      -2.90385462 </v>
   <v>       0.69212922       0.17798672       2.15327085 </v>
   <v>       0.19127111       0.14286160      -2.90530402 </v>
   <v>      -0.03251679       0.12293283       2.94150028 </v>
   <v>       0.52574607       0.67711487      -2.14577437 </v>
   <v>      -0.36873040       0.73549857       2.18002460 </v>
   <v>       0.47511254      -0.56172201      -2.11452717 </v>
   <v>       0.22052052      -0.53135898       1.40936031 </v>
   <v>       0.48162697       0.60746039      -2.15699493 </v>
   <v>      -0.46884854       0.55579163       2.11916887 </v>
   <v>      -0.23320321       0.51957432      -1.39673529 </v>
   <v>       0.24240183       0.52680240       1.38727073 </v>
  </varray>
  <varray name="stress" >
   <v>       7.27675024       0.12088210      -1.59975535 </v>
   <v>       0.12088211       4.48885936       0.03812035 </v>
   <v>      -1.59975543       0.03812012      30.27881013 </v>
  </varray>
  <energy>
   <i name="e_fr_energy">   -186.89338015 </i>
   <i name="e_wo_entrp">   -186.72269661 </i>
   <i name="e_0_energy">     -0.34136708 </i>
  </energy>
  <time name="totalsc">  824.68  826.88</time>
 </calculation>
 <calculation>
  <scstep>
   <time name="dav">   23.13   23.18</time>
   <time name="total">   23.67   23.73</time>
   <energy>
    <i name="alphaZ">     78.91875715 </i>
    <i name="ewald">  39379.22622194 </i>
    <i name="hartreedc"> -45336.81224837 </i>
    <i name="XCdc">   -239.05311700 </i>
    <i name="pawpsdc">   4192.15000155 </i>
    <i name="pawaedc">  -3610.17486788 </i>
    <i name="eentropy">     -0.27870819 </i>
    <i name="bandstr">  -1412.95088166 </i>
    <i name="atom">   6761.44252427 </i>
    <i name="e_fr_energy">   -187.53231820 </i>
    <i name="e_wo_entrp">   -187.25361001 </i>
    <i name="e_0_energy">   -187.39296410 </i>
   </energy>
  </scstep>
  <scstep>
   <time name="dav">   32.27   32.35</time>
   <time name="total">   32.81   32.89</time>
   <energy>
    <i name="e_fr_energy">   -189.48965866 </i>
    <i name="e_wo_entrp">   -189.15957217 </i>
    <i name="e_0_energy">   -189.32461542 </i>
   </energy>
  </scstep>
  <scstep>
   <time name="dav">   32.45   32.53</time>
   <time name="total">   33.00   33.09</time>
   <energy>
    <i name="e_fr_energy">   -189.37298009 </i>
    <i name="e_wo_entrp">   -189.10199592 </i>
    <i name="e_0_energy">   -189.23748800 </i>
   </energy>
  </scstep>
  <scstep>
   <time name="dav">   32.63   32.71</time>
   <time name="total">   33.18   33.26</time>
   <energy>
    <i name="e_fr_energy">   -188.78751150 </i>
    <i name="e_wo_entrp">   -188.50857307 </i>
    <i name="e_0_energy">   -188.64804229 </i>
   </energy>
  </scstep>
  <scstep>
   <time name="dav">   32.32   32.40</time>
   <time name="total">   32.86   32.97</time>
   <energy>
    <i name="e_fr_energy">   -188.92809339 </i>
    <i name="e_wo_entrp">   -188.63650928 </i>
    <i name="e_0_energy">   -188.78230133 </i>
   </energy>
  </scstep>
  <scstep>
   <time name="dav">   33.20   33.28</time>
   <time name="total">   33.74   33.83</time>
   <energy>
    <i name="e_fr_energy">   -188.75147872 </i>
    <i name="e_wo_entrp">   -188.47584109 </i>
    <i name="e_0_energy">   -188.61365990 </i>
   </energy>
  </scstep>
  <scstep>
   <time name="dav">   31.16   31.23</time>
   <time name="total">   31.70   31.79</time>
   <energy>
    <i name="e_fr_energy">   -188.71988695 </i>
    <i name="e_wo_entrp">   -188.44007075 </i>
    <i name="e_0_energy">   -188.57997885 </i>
   </energy>
  </scstep>
  <scstep>
   <time name="dav">   33.74   33.83</time>
   <time name="total">   34.30   34.39</time>
   <energy>
    <i name="e_fr_energy">   -188.71155653 </i>
    <i name="e_wo_entrp">   -188.43406033 </i>
    <i name="e_0_energy">   -188.57280843 </i>
   </energy>
  </scstep>
  <scstep>
   <time name="dav">   31.35   31.43</time>
   <time name="total">   31.91   31.99</time>
   <energy>
    <i name="e_fr_energy">   -188.70004293 </i>
    <i name="e_wo_entrp">   -188.42297043 </i>
    <i name="e_0_energy">   -188.56150668 </i>
   </energy>
  </scstep>
  <scstep>
   <time name="dav">   33.49   33.57</time>
   <time name="total">   34.04   34.13</time>
   <energy>
    <i name="e_fr_energy">   -188.69953325 </i>
    <i name="e_wo_entrp">   -188.42271878 </i>
    <i name="e_0_energy">   -188.56112602 </i>
   </energy>
  </scstep>
  <scstep>
   <time name="dav">   30.94   31.02</time>
   <time name="total">   31.49   31.58</time>
   <energy>
    <i name="e_fr_energy">   -188.69912656 </i>
    <i name="e_wo_entrp">   -188.42260726 </i>
    <i name="e_0_energy">   -188.56086691 </i>
   </energy>
  </scstep>
  <scstep>
   <time name="dav">   31.62   31.69</time>
   <time name="total">   31.65   31.74</time>
   <energy>
    <i name="alphaZ">     78.91875715 </i>
    <i name="ewald">  39379.22622194 </i>
    <i name="hartreedc"> -45347.67680410 </i>
    <i name="XCdc">   -237.96446825 </i>
    <i name="pawpsdc">   3952.20663528 </i>
    <i name="pawaedc">  -3366.74429281 </i>
    <i name="eentropy">     -0.27655462 </i>
    <i name="bandstr">  -1407.83123105 </i>
    <i name="atom">   6761.44252427 </i>
    <i name="e_fr_energy">   -188.69921220 </i>
    <i name="e_wo_entrp">   -188.42265758 </i>
    <i name="e_0_energy">   -188.56093489 </i>
   </energy>
  </scstep>
  <structure>
   <crystal>
    <varray name="basis" >
     <v>       8.85624645       5.10921339       0.00000000 </v>
     <v>      -8.85268360       5.10308493       0.00000000 </v>
     <v>       0.00000000       0.00000000      30.00000000 </v>
    </varray>
    <i name="volume">   2712.73282383 </i>
    <varray name="rec_basis" >
     <v>       0.05643480       0.09790146       0.00000000 </v>
     <v>      -0.05650258       0.09794086       0.00000000 </v>
     <v>       0.00000000       0.00000000       0.03333333 </v>
    </varray>
   </crystal>
   <varray name="positions" >
    <v>       0.66473798      -0.00112022       0.00012864 </v>
    <v>       0.00187881       0.00074388       0.00001350 </v>
    <v>       0.00229672       0.66813164      -0.00014197 </v>
    <v>       0.33345640       0.33336172       0.00003846 </v>
    <v>       0.33324124       0.66666549      -0.00017962 </v>
    <v>       0.33311908      -0.00014108      -0.00002380 </v>
    <v>       1.00272708       0.33427251       0.00005486 </v>
    <v>       0.66364605       0.33179122       0.00018582 </v>
    <v>       0.66443897       0.66601059      -0.00000654 </v>
    <v>       0.10840945       0.21812562       0.95190258 </v>
    <v>       0.21770404       0.10886959       0.04804292 </v>
    <v>       0.10812535       0.55704962       0.95192638 </v>
    <v>       0.22116518       0.44379960       0.04923616 </v>
    <v>       0.10652178       0.88670049       0.95308070 </v>
    <v>       0.21770195       0.77556065       0.04804562 </v>
    <v>       0.44522415       0.22260558       0.95073033 </v>
    <v>       0.55856061       0.10961134       0.04806265 </v>
    <v>       0.44523433       0.55593474       0.95072800 </v>
    <v>       0.55628104       0.44469727       0.04933019 </v>
    <v>       0.44872182       0.89089441       0.95194940 </v>
    <v>       0.55827737       0.78189774       0.04810567 </v>
    <v>       0.77598525       0.21843958       0.95199964 </v>
    <v>       0.88718692       0.10752851       0.04686637 </v>
    <v>       0.78159905       0.55735048       0.95193135 </v>
    <v>       0.89047206       0.44798287       0.04800781 </v>
    <v>       0.77918966       0.89225195       0.95315392 </v>
    <v>       0.89231213       0.77919866       0.04683085 </v>
   </varray>
  </structure>
  <varray name="forces" >
   <v>      -0.15129844      -0.29424633      -0.07236066 </v>
   <v>       0.14210406       0.27495867       0.08521324 </v>
   <v>       0.19586514       0.34954575       0.05447137 </v>
   <v>       0.03087772       0.21362355       0.01309654 </v>
   <v>       0.11303306      -0.11856215      -0.03994100 </v>
   <v>       0.00165579       0.15159334       0.00491516 </v>
   <v>       0.29293442       0.48495056       0.08044274 </v>
   <v>      -0.39683268      -0.48872194      -0.06323526 </v>
   <v>      -0.18793537      -0.52606779      -0.09701829 </v>
   <v>      -0.10044615      -0.05025145      -0.04843677 </v>
   <v>      -0.02902111      -0.08528358       0.05346045 </v>
   <v>       0.01820133      -0.09240084      -0.11482126 </v>
   <v>      -0.05521361      -0.10239615       0.13862570 </v>
   <v>      -0.01247078      -0.04211757      -0.03647232 </v>
   <v>      -0.02961527      -0.06447528       0.02696156 </v>
   <v>       0.05099800       0.11159914      -0.13772741 </v>
   <v>      -0.01020783       0.09793138       0.11957790 </v>
   <v>       0.05284598       0.11084724      -0.17075730 </v>
   <v>       0.06529154       0.08321358       0.14912054 </v>
   <v>       0.03206403       0.06713274      -0.05886653 </v>
   <v>       0.09510796       0.05841326       0.05673053 </v>
   <v>      -0.04868267       0.06918361       0.29155542 </v>
   <v>      -0.05126761       0.07970039      -0.19307452 </v>
   <v>      -0.06007168      -0.06578383       0.23385041 </v>
   <v>       0.05133632      -0.06858133      -0.25824728 </v>
   <v>       0.06327730      -0.07510583       0.22939106 </v>
   <v>      -0.07252946      -0.07869913      -0.24645403 </v>
  </varray>
  <varray name="stress" >
   <v>     -19.96664571      -0.02714438      -0.02845927 </v>
   <v>      -0.02714427     -19.56000006      -0.10804064 </v>
   <v>      -0.02845911      -0.10804071      -1.78990571 </v>
  </varray>
  <energy>
   <i name="e_fr_energy">   -188.69921220 </i>
   <i name="e_wo_entrp">   -188.56093489 </i>
   <i name="e_0_energy">     -0.27655462 </i>
  </energy>
  <time name="totalsc">  429.01  430.15</time>
 </calculation>
 <calculation>
  <scstep>
   <time name="dav">   25.21   25.27</time>
   <time name="total">   25.75   25.81</time>
   <energy>
    <i name="alphaZ">     82.33585115 </i>
    <i name="ewald">  41298.32412838 </i>
    <i name="hartreedc"> -47297.25394484 </i>
    <i name="XCdc">   -233.85359601 </i>
    <i name="pawpsdc">   3950.62955085 </i>
    <i name="pawaedc">  -3365.14899691 </i>
    <i name="eentropy">     -0.23220367 </i>
    <i name="bandstr">  -1386.86372901 </i>
    <i name="atom">   6761.44252427 </i>
    <i name="e_fr_energy">   -190.62041578 </i>
    <i name="e_wo_entrp">   -190.38821211 </i>
    <i name="e_0_energy">   -190.50431395 </i>
   </energy>
  </scstep>
  <scstep>
   <time name="dav">   29.58   29.66</time>
   <time name="total">   30.11   30.18</time>
   <energy>
    <i name="e_fr_energy">   -190.57029704 </i>
    <i name="e_wo_entrp">   -190.34172128 </i>
    <i name="e_0_energy">   -190.45600916 </i>
   </energy>
  </scstep>
  <scstep>
   <time name="dav">   32.27   32.35</time>
   <time name="total">   32.80   32.89</time>
   <energy>
    <i name="e_fr_energy">   -190.10805805 </i>
    <i name="e_wo_entrp">   -189.85905234 </i>
    <i name="e_0_energy">   -189.98355519 </i>
   </energy>
  </scstep>
  <scstep>
   <time name="dav">   32.75   32.83</time>
   <time name="total">   33.29   33.38</time>
   <energy>
    <i name="e_fr_energy">   -189.89512019 </i>
    <i name="e_wo_entrp">   -189.66664986 </i>
    <i name="e_0_energy">   -189.78088503 </i>
   </energy>
  </scstep>
  <scstep>
   <time name="dav">   32.17   32.24</time>
   <time name="total">   32.70   32.79</time>
   <energy>
    <i name="e_fr_energy">   -189.84865541 </i>
    <i name="e_wo_entrp">   -189.61381372 </i>
    <i name="e_0_energy">   -189.73123457 </i>
   </energy>
  </scstep>
  <scstep>
   <time name="dav">   33.09   33.17</time>
   <time name="total">   33.63   33.72</time>
   <energy>
    <i name="e_fr_energy">   -189.79805726 </i>
    <i name="e_wo_entrp">   -189.56390043 </i>
    <i name="e_0_energy">   -189.68097885 </i>
   </energy>
  </scstep>
  <scstep>
   <time name="dav">   30.64   30.71</time>
   <time name="total">   31.17   31.25</time>
   <energy>
    <i name="e_fr_energy">   -189.79147558 </i>
    <i name="e_wo_entrp">   -189.55865870 </i>
    <i name="e_0_energy">   -189.67506714 </i>
   </energy>
  </scstep>
  <scstep>
   <time name="dav">   32.28   32.36</time>
   <time name="total">   32.81   32.90</time>
   <energy>
    <i name="e_fr_energy">   -189.79207217 </i>
    <i name="e_wo_entrp">   -189.55909948 </i>
    <i name="e_0_energy">   -189.67558582 </i>
   </energy>
  </scstep>
  <scstep>
   <time name="dav">   28.83   28.90</time>
   <time name="total">   29.36   29.44</time>
   <energy>
    <i name="e_fr_energy">   -189.79152654 </i>
    <i name="e_wo_entrp">   -189.55847224 </i>
    <i name="e_0_energy">   -189.67499939 </i>
   </energy>
  </scstep>
  <scstep>
   <time name="dav">   26.55   26.62</time>
   <time name="total">   27.09   27.16</time>
   <energy>
    <i name="e_fr_energy">   -189.79181290 </i>
    <i name="e_wo_entrp">   -189.55875567 </i>
    <i name="e_0_energy">   -189.67528428 </i>
   </energy>
  </scstep>
  <scstep>
   <time name="dav">   24.59   24.65</time>
   <time name="total">   25.13   25.19</time>
   <energy>
    <i name="e_fr_energy">   -189.79153976 </i>
    <i name="e_wo_entrp">   -189.55836716 </i>
    <i name="e_0_energy">   -189.67495346 </i>
   </energy>
  </scstep>
  <scstep>
   <time name="dav">   19.94   19.99</time>
   <time name="total">   19.98   20.03</time>
   <energy>
    <i name="alphaZ">     82.33585115 </i>
    <i name="ewald">  41298.32412838 </i>
    <i name="hartreedc"> -47270.59579077 </i>
    <i name="XCdc">   -235.24512647 </i>
    <i name="pawpsdc">   4038.66250814 </i>
    <i name="pawaedc">  -3454.37116512 </i>
    <i name="eentropy">     -0.23314699 </i>
    <i name="bandstr">  -1410.11134565 </i>
    <i name="atom">   6761.44252427 </i>
    <i name="e_fr_energy">   -189.79156304 </i>
    <i name="e_wo_entrp">   -189.55841605 </i>
    <i name="e_0_energy">   -189.67498954 </i>
   </energy>
  </scstep>
  <structure>
   <crystal>
    <varray name="basis" >
     <v>       8.66846592       5.00291625       0.00000000 </v>
     <v>      -8.66527269       4.99742504       0.00000000 </v>
     <v>       0.00000000       0.00000000      30.00000000 </v>
    </varray>
    <i name="volume">   2600.14926589 </i>
    <varray name="rec_basis" >
     <v>       0.05765929       0.09997818       0.00000000 </v>
     <v>      -0.05772264       0.10001502       0.00000000 </v>
     <v>       0.00000000       0.00000000       0.03333333 </v>
    </varray>
   </crystal>
   <varray name="positions" >
    <v>       0.66410606      -0.00146320       0.00008783 </v>
    <v>       0.00247000       0.00106369       0.00006157 </v>
    <v>       0.00306281       0.66852366      -0.00011124 </v>
    <v>       0.33383977       0.33368623       0.00004585 </v>
    <v>       0.33315277       0.66636093      -0.00020215 </v>
    <v>       0.33337178       0.00010856      -0.00002103 </v>
    <v>       1.00381017       0.33479612       0.00010024 </v>
    <v>       0.66245749       0.33136069       0.00015015 </v>
    <v>       0.66338803       0.66531845      -0.00006126 </v>
    <v>       0.10823029       0.21813838       0.95187526 </v>
    <v>       0.21753505       0.10875600       0.04807307 </v>
    <v>       0.10798967       0.55687908       0.95186161 </v>
    <v>       0.22094283       0.44368269       0.04931435 </v>
    <v>       0.10644010       0.88664261       0.95306012 </v>
    <v>       0.21756686       0.77548211       0.04806082 </v>
    <v>       0.44545772       0.22274177       0.95065265 </v>
    <v>       0.55871309       0.10978339       0.04813009 </v>
    <v>       0.44546842       0.55606791       0.95063169 </v>
    <v>       0.55648124       0.44477276       0.04941430 </v>
    <v>       0.44886365       0.89097501       0.95191619 </v>
    <v>       0.55846495       0.78190362       0.04813767 </v>
    <v>       0.77605337       0.21860078       0.95216409 </v>
    <v>       0.88726999       0.10770961       0.04675748 </v>
    <v>       0.78143271       0.55729889       0.95206325 </v>
    <v>       0.89040747       0.44782013       0.04786215 </v>
    <v>       0.77912567       0.89206698       0.95328330 </v>
    <v>       0.89211250       0.77913758       0.04669185 </v>
   </varray>
  </structure>
  <varray name="forces" >
   <v>      -0.18518283      -0.29550926      -0.08735381 </v>
   <v>       0.12357720       0.28338424       0.08528680 </v>
   <v>       0.23884083       0.33064017       0.07664282 </v>
   <v>       0.04292978       0.27226585       0.00645243 </v>
   <v>       0.13637144      -0.16260714      -0.01171669 </v>
   <v>       0.01308887       0.21807162       0.01205970 </v>
   <v>       0.26683019       0.50698597       0.06587281 </v>
   <v>      -0.43337124      -0.50186379      -0.08360139 </v>
   <v>      -0.14649863      -0.58878729      -0.08550971 </v>
   <v>       0.02289554      -0.10414597      -0.55555886 </v>
   <v>      -0.05700470      -0.13917027       0.53848311 </v>
   <v>      -0.09186718      -0.02362243      -0.63346778 </v>
   <v>      -0.00841770      -0.01557546       0.70254767 </v>
   <v>      -0.04355756      -0.09233363      -0.48903305 </v>
   <v>      -0.06481663      -0.11178206       0.50256444 </v>
   <v>       0.00653503       0.02138660      -0.70172271 </v>
   <v>       0.09892795       0.01526564       0.63730275 </v>
   <v>       0.00641041       0.02778308      -0.74255232 </v>
   <v>       0.01843999       0.02055951       0.73763867 </v>
   <v>       0.06034017       0.12457992      -0.54303943 </v>
   <v>      -0.02857413       0.10888094       0.56057983 </v>
   <v>       0.02605017      -0.03012540      -0.17099376 </v>
   <v>       0.01970622      -0.05330437       0.24747695 </v>
   <v>       0.01760571       0.05607314      -0.24953387 </v>
   <v>      -0.02550991       0.03956883       0.20670355 </v>
   <v>      -0.00866933       0.05962318      -0.21061566 </v>
   <v>      -0.00507969       0.03375838       0.18508748 </v>
  </varray>
  <varray name="stress" >
   <v>     -10.18019270      -0.03556360      -0.04758593 </v>
   <v>      -0.03556367      -9.86034737      -0.12770387 </v>
   <v>      -0.04758573      -0.12770378       6.47564092 </v>
  </varray>
  <energy>
   <i name="e_fr_energy">   -189.79156304 </i>
   <i name="e_wo_entrp">   -189.67498954 </i>
   <i name="e_0_energy">     -0.23314699 </i>
  </energy>
  <time name="totalsc">  397.84  398.88</time>
 </calculation>
 <calculation>
  <scstep>
   <time name="dav">   23.14   23.19</time>
   <time name="total">   23.66   23.72</time>
   <energy>
    <i name="alphaZ">     85.80324749 </i>
    <i name="ewald">  42825.18387322 </i>
    <i name="hartreedc"> -48841.80109974 </i>
    <i name="XCdc">   -232.96517220 </i>
    <i name="pawpsdc">   4038.77809103 </i>
    <i name="pawaedc">  -3454.48471726 </i>
    <i name="eentropy">     -0.19156571 </i>
    <i name="bandstr">  -1373.13276271 </i>
    <i name="atom">   6761.44252427 </i>
    <i name="e_fr_energy">   -191.36758160 </i>
    <i name="e_wo_entrp">   -191.17601589 </i>
    <i name="e_0_energy">   -191.27179875 </i>
   </energy>
  </scstep>
  <scstep>
   <time name="dav">   34.61   34.69</time>
   <time name="total">   35.12   35.21</time>
   <energy>
    <i name="e_fr_energy">   -191.18398666 </i>
    <i name="e_wo_entrp">   -190.99411783 </i>
    <i name="e_0_energy">   -191.08905225 </i>
   </energy>
  </scstep>
  <scstep>
   <time name="dav">   31.91   31.99</time>
   <time name="total">   32.43   32.51</time>
   <energy>
    <i name="e_fr_energy">   -191.33875422 </i>
    <i name="e_wo_entrp">   -191.11462226 </i>
    <i name="e_0_energy">   -191.22668824 </i>
   </energy>
  </scstep>
  <scstep>
   <time name="dav">   32.46   32.54</time>
   <time name="total">   32.98   33.07</time>
   <energy>
    <i name="e_fr_energy">   -190.93947153 </i>
    <i name="e_wo_entrp">   -190.74793514 </i>
    <i name="e_0_energy">   -190.84370333 </i>
   </energy>
  </scstep>
  <scstep>
   <time name="dav">   32.17   32.25</time>
   <time name="total">   32.70   32.78</time>
   <energy>
    <i name="e_fr_energy">   -190.90017179 </i>
    <i name="e_wo_entrp">   -190.70553883 </i>
    <i name="e_0_energy">   -190.80285531 </i>
   </energy>
  </scstep>
  <scstep>
   <time name="dav">   32.18   32.26</time>
   <time name="total">   32.70   32.79</time>
   <energy>
    <i name="e_fr_energy">   -190.80864794 </i>
    <i name="e_wo_entrp">   -190.61006978 </i>
    <i name="e_0_energy">   -190.70935886 </i>
   </energy>
  </scstep>
  <scstep>
   <time name="dav">   32.72   32.79</time>
   <time name="total">   33.23   33.32</time>
   <energy>
    <i name="e_fr_energy">   -190.79735478 </i>
    <i name="e_wo_entrp">   -190.60283658 </i>
    <i name="e_0_energy">   -190.70009568 </i>
   </energy>
  </scstep>
  <scstep>
   <time name="dav">   27.79   27.86</time>
   <time name="total">   28.32   28.39</time>
   <energy>
    <i name="e_fr_energy">   -190.79419582 </i>
    <i name="e_wo_entrp">   -190.59838967 </i>
    <i name="e_0_energy">   -190.69629274 </i>
   </energy>
  </scstep>
  <scstep>
   <time name="dav">   30.65   30.73</time>
   <time name="total">   31.17   31.25</time>
   <energy>
    <i name="e_fr_energy">   -190.79429644 </i>
    <i name="e_wo_entrp">   -190.59854332 </i>
    <i name="e_0_energy">   -190.69641988 </i>
   </energy>
  </scstep>
  <scstep>
   <time name="dav">   29.75   29.82</time>
   <time name="total">   30.27   30.35</time>
   <energy>
    <i name="e_fr_energy">   -190.79419759 </i>
    <i name="e_wo_entrp">   -190.59814930 </i>
    <i name="e_0_energy">   -190.69617344 </i>
   </energy>
  </scstep>
  <scstep>
   <time name="dav">   25.92   25.98</time>
   <time name="total">   26.44   26.51</time>
   <energy>
    <i name="e_fr_energy">   -190.79409256 </i>
    <i name="e_wo_entrp">   -190.59816963 </i>
    <i name="e_0_energy">   -190.69613109 </i>
   </energy>
  </scstep>
  <scstep>
   <time name="dav">   20.90   20.95</time>
   <time name="total">   20.94   21.00</time>
   <energy>
    <i name="alphaZ">     85.80324749 </i>
    <i name="ewald">  42825.18387322 </i>
    <i name="hartreedc"> -48813.22285954 </i>
    <i name="XCdc">   -234.29387536 </i>
    <i name="pawpsdc">   4063.81851513 </i>
    <i name="pawaedc">  -3479.69916351 </i>
    <i name="eentropy">     -0.19596957 </i>
    <i name="bandstr">  -1399.63037820 </i>
    <i name="atom">   6761.44252427 </i>
    <i name="e_fr_energy">   -190.79408606 </i>
    <i name="e_wo_entrp">   -190.59811649 </i>
    <i name="e_0_energy">   -190.69610128 </i>
   </energy>
  </scstep>
  <structure>
   <crystal>
    <varray name="basis" >
     <v>       8.48644767       4.90207038       0.00000000 </v>
     <v>      -8.48474001       4.89914769       0.00000000 </v>
     <v>       0.00000000       0.00000000      30.00000000 </v>
    </varray>
    <i name="volume">   2495.07459449 </i>
    <varray name="rec_basis" >
     <v>       0.05890583       0.10201787       0.00000000 </v>
     <v>      -0.05894097       0.10203840       0.00000000 </v>
     <v>       0.00000000       0.00000000       0.03333333 </v>
    </varray>
   </crystal>
   <varray name="positions" >
    <v>       0.66153696      -0.00259790      -0.00010561 </v>
    <v>       0.00468326       0.00243864       0.00023802 </v>
    <v>       0.00600799       0.66962078       0.00006615 </v>
    <v>       0.33586214       0.33536447       0.00005354 </v>
    <v>       0.33255107       0.66470669      -0.00020234 </v>
    <v>       0.33496611       0.00157593       0.00001000 </v>
    <v>       1.00796243       0.33709797       0.00022407 </v>
    <v>       0.65766818       0.32980524      -0.00004010 </v>
    <v>       0.65907859       0.66194599      -0.00022831 </v>
    <v>       0.10770439       0.21709093       0.95029435 </v>
    <v>       0.21628350       0.10799649       0.04959985 </v>
    <v>       0.10752368       0.55739414       0.95010976 </v>
    <v>       0.22109966       0.44376533       0.05124763 </v>
    <v>       0.10553480       0.88614131       0.95166327 </v>
    <v>       0.21646451       0.77494911       0.04950529 </v>
    <v>       0.44532533       0.22269045       0.94872101 </v>
    <v>       0.55911619       0.10915712       0.04988910 </v>
    <v>       0.44539064       0.55607781       0.94860896 </v>
    <v>       0.55645213       0.44474566       0.05144111 </v>
    <v>       0.45004529       0.89163965       0.95038072 </v>
    <v>       0.55899092       0.78299313       0.04972618 </v>
    <v>       0.77581825       0.21796172       0.95141649 </v>
    <v>       0.88677726       0.10686952       0.04764452 </v>
    <v>       0.78226388       0.55777903       0.95113547 </v>
    <v>       0.89072269       0.44854151       0.04868565 </v>
    <v>       0.77970067       0.89291247       0.95247296 </v>
    <v>       0.89268394       0.77955125       0.04744218 </v>
   </varray>
  </structure>
  <varray name="forces" >
   <v>      -0.19156398      -0.31185623      -0.07867674 </v>
   <v>       0.09727926       0.26718173       0.04913869 </v>
   <v>       0.30242024       0.37385441       0.07225853 </v>
   <v>       0.04376241       0.33682419      -0.01286431 </v>
   <v>       0.16179646      -0.20844113       0.02663399 </v>
   <v>       0.02053149       0.25738071       0.01360924 </v>
   <v>       0.31113126       0.56599258       0.00343237 </v>
   <v>      -0.51461526      -0.55378485      -0.03821732 </v>
   <v>      -0.13647079      -0.60966522      -0.02034687 </v>
   <v>       0.04636413       0.01531570      -0.37921620 </v>
   <v>      -0.00907529      -0.00358936       0.38740870 </v>
   <v>      -0.01352536       0.03718859      -0.49130951 </v>
   <v>       0.04957385       0.05711736       0.53919816 </v>
   <v>       0.00474922       0.01620826      -0.38027301 </v>
   <v>      -0.00342115       0.02110020       0.35962204 </v>
   <v>      -0.05388677      -0.07790520      -0.56346273 </v>
   <v>       0.00953803      -0.01356644       0.47969447 </v>
   <v>      -0.03974862      -0.05267686      -0.59500923 </v>
   <v>      -0.02340828      -0.03427466       0.59174383 </v>
   <v>       0.00986602      -0.01018607      -0.39141130 </v>
   <v>      -0.02084641      -0.01053984       0.37324925 </v>
   <v>      -0.00449473       0.04073624       0.01622675 </v>
   <v>      -0.00453648       0.00311078       0.14717423 </v>
   <v>      -0.00390275      -0.00384110      -0.11072954 </v>
   <v>      -0.02010854      -0.03852981       0.02707640 </v>
   <v>       0.02188005      -0.02153278      -0.08706980 </v>
   <v>      -0.03928800      -0.04162121       0.06211990 </v>
  </varray>
  <varray name="stress" >
   <v>      -5.86776781       0.10308705      -0.01534176 </v>
   <v>       0.10308716      -5.74633228       0.01314461 </v>
   <v>      -0.01534177       0.01314464       4.52002909 </v>
  </varray>
  <energy>
   <i name="e_fr_energy">   -190.79408606 </i>
   <i name="e_wo_entrp">   -190.69610128 </i>
   <i name="e_0_energy">     -0.19596957 </i>
  </energy>
  <time name="totalsc">  404.38  405.44</time>
 </calculation>
 <calculation>
  <scstep>
   <time name="dav">   23.11   23.16</time>
   <time name="total">   23.62   23.68</time>
   <energy>
    <i name="alphaZ">     90.21757252 </i>
    <i name="ewald">  44683.61748351 </i>
    <i name="hartreedc"> -50727.62317430 </i>
    <i name="XCdc">   -231.80638301 </i>
    <i name="pawpsdc">   4063.76861614 </i>
    <i name="pawaedc">  -3479.64517766 </i>
    <i name="eentropy">     -0.16451851 </i>
    <i name="bandstr">  -1352.06482257 </i>
    <i name="atom">   6761.44252427 </i>
    <i name="e_fr_energy">   -192.25787959 </i>
    <i name="e_wo_entrp">   -192.09336108 </i>
    <i name="e_0_energy">   -192.17562034 </i>
   </energy>
  </scstep>
  <scstep>
   <time name="dav">   29.29   29.36</time>
   <time name="total">   29.79   29.87</time>
   <energy>
    <i name="e_fr_energy">   -191.99314016 </i>
    <i name="e_wo_entrp">   -191.81644606 </i>
    <i name="e_0_energy">   -191.90479311 </i>
   </energy>
  </scstep>
  <scstep>
   <time name="dav">   31.99   32.07</time>
   <time name="total">   32.50   32.59</time>
   <energy>
    <i name="e_fr_energy">   -192.06672815 </i>
    <i name="e_wo_entrp">   -191.88564705 </i>
    <i name="e_0_energy">   -191.97618760 </i>
   </energy>
  </scstep>
  <scstep>
   <time name="dav">   31.57   31.64</time>
   <time name="total">   32.07   32.16</time>
   <energy>
    <i name="e_fr_energy">   -191.86573704 </i>
    <i name="e_wo_entrp">   -191.68719846 </i>
    <i name="e_0_energy">   -191.77646775 </i>
   </energy>
  </scstep>
  <scstep>
   <time name="dav">   32.34   32.42</time>
   <time name="total">   32.85   32.94</time>
   <energy>
    <i name="e_fr_energy">   -191.60235797 </i>
    <i name="e_wo_entrp">   -191.43234946 </i>
    <i name="e_0_energy">   -191.51735371 </i>
   </energy>
  </scstep>
  <scstep>
   <time name="dav">   33.09   33.17</time>
   <time name="total">   33.60   33.69</time>
   <energy>
    <i name="e_fr_energy">   -191.59168194 </i>
    <i name="e_wo_entrp">   -191.40923614 </i>
    <i name="e_0_energy">   -191.50045904 </i>
   </energy>
  </scstep>
  <scstep>
   <time name="dav">   32.28   32.35</time>
   <time name="total">   32.79   32.87</time>
   <energy>
    <i name="e_fr_energy">   -191.57343305 </i>
    <i name="e_wo_entrp">   -191.40674449 </i>
    <i name="e_0_energy">   -191.49008877 </i>
   </energy>
  </scstep>
  <scstep>
   <time name="dav">   30.89   30.96</time>
   <time name="total">   31.40   31.48</time>
   <energy>
    <i name="e_fr_energy">   -191.56599987 </i>
    <i name="e_wo_entrp">   -191.39432750 </i>
    <i name="e_0_energy">   -191.48016369 </i>
   </energy>
  </scstep>
  <scstep>
   <time name="dav">   31.62   31.69</time>
   <time name="total">   32.13   32.22</time>
   <energy>
    <i name="e_fr_energy">   -191.56515884 </i>
    <i name="e_wo_entrp">   -191.39309059 </i>
    <i name="e_0_energy">   -191.47912471 </i>
   </energy>
  </scstep>
  <scstep>
   <time name="dav">   30.37   30.44</time>
   <time name="total">   30.88   30.96</time>
   <energy>
    <i name="e_fr_energy">   -191.56513458 </i>
    <i name="e_wo_entrp">   -191.39292930 </i>
    <i name="e_0_energy">   -191.47903194 </i>
   </energy>
  </scstep>
  <scstep>
   <time name="dav">   28.99   29.06</time>
   <time name="total">   29.03   29.10</time>
   <energy>
    <i name="alphaZ">     90.21757252 </i>
    <i name="ewald">  44683.61748351 </i>
    <i name="hartreedc"> -50692.73803838 </i>
    <i name="XCdc">   -233.34823513 </i>
    <i name="pawpsdc">   4086.55386075 </i>
    <i name="pawaedc">  -3502.51579079 </i>
    <i name="eentropy">     -0.17242481 </i>
    <i name="bandstr">  -1384.62202618 </i>
    <i name="atom">   6761.44252427 </i>
    <i name="e_fr_energy">   -191.56507423 </i>
    <i name="e_wo_entrp">   -191.39264942 </i>
    <i name="e_0_energy">   -191.47886183 </i>
   </energy>
  </scstep>
  <structure>
   <crystal>
    <varray name="basis" >
     <v>       8.27560019       4.78754998       0.00000000 </v>
     <v>      -8.26826359       4.77487790       0.00000000 </v>
     <v>       0.00000000       0.00000000      30.00000000 </v>
    </varray>
    <i name="volume">   2372.99116953 </i>
    <varray name="rec_basis" >
     <v>       0.06036531       0.10452964       0.00000000 </v>
     <v>      -0.06052551       0.10462239       0.00000000 </v>
     <v>       0.00000000       0.00000000       0.03333333 </v>
    </varray>
   </crystal>
   <varray name="positions" >
    <v>       0.65627845      -0.00501482      -0.00044285 </v>
    <v>       0.00873332       0.00510968       0.00045596 </v>
    <v>       0.01268216       0.67194822       0.00038235 </v>
    <v>       0.34042895       0.33926705       0.00000540 </v>
    <v>       0.33108937       0.66090050      -0.00008733 </v>
    <v>       0.33844116       0.00473378       0.00007124 </v>
    <v>       1.01707348       0.34193482       0.00025708 </v>
    <v>       0.64719753       0.32665979      -0.00023924 </v>
    <v>       0.65046504       0.65516184      -0.00033413 </v>
    <v>       0.10805225       0.21640327       0.94816135 </v>
    <v>       0.21569387       0.10772447       0.05173016 </v>
    <v>       0.10772472       0.55831394       0.94753126 </v>
    <v>       0.22231692       0.44422788       0.05407615 </v>
    <v>       0.10533981       0.88607751       0.94961708 </v>
    <v>       0.21621959       0.77499162       0.05150964 </v>
    <v>       0.44386093       0.22202977       0.94580804 </v>
    <v>       0.55909370       0.10845463       0.05242814 </v>
    <v>       0.44431183       0.55563497       0.94555584 </v>
    <v>       0.55572994       0.44443557       0.05449688 </v>
    <v>       0.45048205       0.89174152       0.94823480 </v>
    <v>       0.55884363       0.78357815       0.05183775 </v>
    <v>       0.77603583       0.21793100       0.95091833 </v>
    <v>       0.88644150       0.10631090       0.04873327 </v>
    <v>       0.78279950       0.55806567       0.95013019 </v>
    <v>       0.89041552       0.44879287       0.04935690 </v>
    <v>       0.77997124       0.89317333       0.95161479 </v>
    <v>       0.89249219       0.77962653       0.04819086 </v>
   </varray>
  </structure>
  <varray name="forces" >
   <v>      -0.18615342      -0.40834378       0.00897990 </v>
   <v>       0.11763861       0.32952323       0.02121395 </v>
   <v>       0.34747034       0.50371519      -0.04932416 </v>
   <v>      -0.03068428       0.08732286      -0.07900712 </v>
   <v>       0.11352237      -0.12369526      -0.01335273 </v>
   <v>      -0.05152438       0.11407460      -0.05251013 </v>
   <v>       0.31985948       0.49522967      -0.07011057 </v>
   <v>      -0.34945778      -0.39525904       0.11750909 </v>
   <v>      -0.14598840      -0.44077396       0.04603202 </v>
   <v>       0.04182055       0.13716136      -0.10956838 </v>
   <v>       0.04967756       0.14828558       0.08479600 </v>
   <v>       0.06236986       0.07681921      -0.16915228 </v>
   <v>       0.14191411       0.11663725       0.26953042 </v>
   <v>       0.05414887       0.08746951      -0.05424444 </v>
   <v>       0.09130030       0.18858165       0.11832392 </v>
   <v>      -0.14847040      -0.17040604      -0.28470393 </v>
   <v>      -0.08190723       0.00293020       0.14366850 </v>
   <v>      -0.08528587      -0.09189895      -0.25980542 </v>
   <v>      -0.03649484      -0.06170665       0.29679129 </v>
   <v>      -0.04446529      -0.15493958      -0.07288776 </v>
   <v>       0.01967539      -0.10768724       0.09687628 </v>
   <v>      -0.11120721       0.17991491       0.35739415 </v>
   <v>      -0.07213207       0.10614468      -0.15131365 </v>
   <v>      -0.03286768      -0.12000728       0.20992804 </v>
   <v>       0.00688318      -0.18583250      -0.34412635 </v>
   <v>       0.05482761      -0.16234165       0.17176537 </v>
   <v>      -0.04446939      -0.15091797      -0.23270201 </v>
  </varray>
  <varray name="stress" >
   <v>      -0.24963808       0.18156992       0.33038861 </v>
   <v>       0.18156973       0.18146909       0.33558804 </v>
   <v>       0.33038869       0.33558817      -0.50979841 </v>
  </varray>
  <energy>
   <i name="e_fr_energy">   -191.56507423 </i>
   <i name="e_wo_entrp">   -191.47886183 </i>
   <i name="e_0_energy">     -0.17242481 </i>
  </energy>
  <time name="totalsc">  385.22  386.23</time>
 </calculation>
 <calculation>
  <scstep>
   <time name="dav">   23.14   23.19</time>
   <time name="total">   23.64   23.70</time>
   <energy>
    <i name="alphaZ">     90.25090968 </i>
    <i name="ewald">  44682.06729020 </i>
    <i name="hartreedc"> -50692.16562915 </i>
    <i name="XCdc">   -233.40102958 </i>
    <i name="pawpsdc">   4086.90552369 </i>
    <i name="pawaedc">  -3502.86372717 </i>
    <i name="eentropy">     -0.16566648 </i>
    <i name="bandstr">  -1383.75900809 </i>
    <i name="atom">   6761.44252427 </i>
    <i name="e_fr_energy">   -191.68881261 </i>
    <i name="e_wo_entrp">   -191.52314613 </i>
    <i name="e_0_energy">   -191.60597937 </i>
   </energy>
  </scstep>
  <scstep>
   <time name="dav">   33.04   33.11</time>
   <time name="total">   33.54   33.63</time>
   <energy>
    <i name="e_fr_energy">   -191.75306192 </i>
    <i name="e_wo_entrp">   -191.56784516 </i>
    <i name="e_0_energy">   -191.66045354 </i>
   </energy>
  </scstep>
  <scstep>
   <time name="dav">   32.73   32.81</time>
   <time name="total">   33.24   33.33</time>
   <energy>
    <i name="e_fr_energy">   -191.70956515 </i>
    <i name="e_wo_entrp">   -191.54377926 </i>
    <i name="e_0_energy">   -191.62667220 </i>
   </energy>
  </scstep>
  <scstep>
   <time name="dav">   30.81   30.88</time>
   <time name="total">   31.32   31.40</time>
   <energy>
    <i name="e_fr_energy">   -191.70876196 </i>
    <i name="e_wo_entrp">   -191.53991062 </i>
    <i name="e_0_energy">   -191.62433629 </i>
   </energy>
  </scstep>
  <scstep>
   <time name="dav">   30.89   30.97</time>
   <time name="total">   31.40   31.48</time>
   <energy>
    <i name="e_fr_energy">   -191.70555068 </i>
    <i name="e_wo_entrp">   -191.53676798 </i>
    <i name="e_0_energy">   -191.62115933 </i>
   </energy>
  </scstep>
  <scstep>
   <time name="dav">   30.31   30.38</time>
   <time name="total">   30.82   30.90</time>
   <energy>
    <i name="e_fr_energy">   -191.70526819 </i>
    <i name="e_wo_entrp">   -191.53581949 </i>
    <i name="e_0_energy">   -191.62054384 </i>
   </energy>
  </scstep>
  <scstep>
   <time name="dav">   30.66   30.73</time>
   <time name="total">   31.17   31.25</time>
   <energy>
    <i name="e_fr_energy">   -191.70471250 </i>
    <i name="e_wo_entrp">   -191.53594028 </i>
    <i name="e_0_energy">   -191.62032639 </i>
   </energy>
  </scstep>
  <scstep>
   <time name="dav">   25.54   25.60</time>
   <time name="total">   26.05   26.12</time>
   <energy>
    <i name="e_fr_energy">   -191.70449494 </i>
    <i name="e_wo_entrp">   -191.53540989 </i>
    <i name="e_0_energy">   -191.61995241 </i>
   </energy>
  </scstep>
  <scstep>
   <time name="dav">   18.98   19.03</time>
   <time name="total">   19.02   19.09</time>
   <energy>
    <i name="alphaZ">     90.25090968 </i>
    <i name="ewald">  44682.06729020 </i>
    <i name="hartreedc"> -50693.00067064 </i>
    <i name="XCdc">   -233.38506989 </i>
    <i name="pawpsdc">   4086.18631976 </i>
    <i name="pawaedc">  -3502.11692121 </i>
    <i name="eentropy">     -0.16880758 </i>
    <i name="bandstr">  -1382.98006360 </i>
    <i name="atom">   6761.44252427 </i>
    <i name="e_fr_energy">   -191.70448901 </i>
    <i name="e_wo_entrp">   -191.53568143 </i>
    <i name="e_0_energy">   -191.62008522 </i>
   </energy>
  </scstep>
  <structure>
   <crystal>
    <varray name="basis" >
     <v>       8.27162180       4.79348453       0.00000000 </v>
     <v>      -8.25961675       4.77272092       0.00000000 </v>
     <v>       0.00000000       0.00000000      30.00000000 </v>
    </varray>
    <i name="volume">   2372.11462673 </i>
    <varray name="rec_basis" >
     <v>       0.06036033       0.10445891       0.00000000 </v>
     <v>      -0.06062293       0.10461073       0.00000000 </v>
     <v>       0.00000000       0.00000000       0.03333333 </v>
    </varray>
   </crystal>
   <varray name="positions" >
    <v>       0.65361610      -0.00656338      -0.00043048 </v>
    <v>       0.01078475       0.00646055       0.00049190 </v>
    <v>       0.01631367       0.67350637       0.00030430 </v>
    <v>       0.34081306       0.33982801      -0.00012328 </v>
    <v>       0.33078364       0.65991011      -0.00010827 </v>
    <v>       0.33889356       0.00548824      -0.00001368 </v>
    <v>       1.02059597       0.34354794       0.00014344 </v>
    <v>       0.64408849       0.32565502      -0.00004973 </v>
    <v>       0.64773402       0.65330038      -0.00026009 </v>
    <v>       0.10887579       0.21697280       0.94796721 </v>
    <v>       0.21658997       0.10833126       0.05188388 </v>
    <v>       0.10830034       0.55852909       0.94723749 </v>
    <v>       0.22333735       0.44440745       0.05453486 </v>
    <v>       0.10594187       0.88636250       0.94951377 </v>
    <v>       0.21744572       0.77568334       0.05171698 </v>
    <v>       0.44254580       0.22159416       0.94532418 </v>
    <v>       0.55886777       0.10870484       0.05268028 </v>
    <v>       0.44358505       0.55541476       0.94511151 </v>
    <v>       0.55530294       0.44422632       0.05500141 </v>
    <v>       0.44956646       0.89108435       0.94810034 </v>
    <v>       0.55835237       0.78297693       0.05201114 </v>
    <v>       0.77662572       0.21917423       0.95149358 </v>
    <v>       0.88676656       0.10705895       0.04849638 </v>
    <v>       0.78209718       0.55755366       0.95046260 </v>
    <v>       0.88948813       0.44782877       0.04880430 </v>
    <v>       0.77930861       0.89218805       0.95188634 </v>
    <v>       0.89159355       0.77898976       0.04781956 </v>
   </varray>
  </structure>
  <varray name="forces" >
   <v>      -0.17708135      -0.44423967      -0.00168437 </v>
   <v>       0.13734211       0.37832280       0.06399094 </v>
   <v>       0.32405113       0.50477885      -0.00806777 </v>
   <v>      -0.03100679       0.04746195      -0.03100394 </v>
   <v>       0.13755724      -0.08911474       0.02958749 </v>
   <v>      -0.08260571       0.10595986      -0.03463448 </v>
   <v>       0.30932097       0.48806722      -0.00166616 </v>
   <v>      -0.33556442      -0.42988726       0.02692586 </v>
   <v>      -0.18157878      -0.43672959       0.01739201 </v>
   <v>       0.03885318       0.06959701      -0.16085028 </v>
   <v>       0.03796357       0.09631236       0.06718365 </v>
   <v>       0.05038011       0.07216622      -0.18394999 </v>
   <v>       0.09595247       0.09806031       0.19611288 </v>
   <v>       0.03293251       0.04742651      -0.07715915 </v>
   <v>       0.07608703       0.14539406       0.08076746 </v>
   <v>      -0.09165288      -0.10640276      -0.18711564 </v>
   <v>      -0.05692869      -0.02997178       0.13370447 </v>
   <v>      -0.06680028      -0.06973955      -0.20960525 </v>
   <v>      -0.05632390      -0.06869812       0.24013246 </v>
   <v>      -0.03529944      -0.10998615      -0.06951717 </v>
   <v>      -0.00706854      -0.06458562       0.11614085 </v>
   <v>      -0.06496205       0.13848009       0.39663035 </v>
   <v>      -0.06439065       0.08665652      -0.22380801 </v>
   <v>      -0.00666884      -0.08308968       0.26397871 </v>
   <v>       0.00063153      -0.11935810      -0.37899675 </v>
   <v>       0.03144948      -0.11817822       0.23026502 </v>
   <v>      -0.01458902      -0.10870253      -0.29475321 </v>
  </varray>
  <varray name="stress" >
   <v>       0.09058298       0.08465499       0.15077025 </v>
   <v>       0.08465526       0.16655824       0.24028692 </v>
   <v>       0.15077035       0.24028679      -1.11607660 </v>
  </varray>
  <energy>
   <i name="e_fr_energy">   -191.70448901 </i>
   <i name="e_wo_entrp">   -191.62008522 </i>
   <i name="e_0_energy">     -0.16880758 </i>
  </energy>
  <time name="totalsc">  304.67  305.48</time>
 </calculation>
 <calculation>
  <scstep>
   <time name="dav">   23.11   23.16</time>
   <time name="total">   23.61   23.67</time>
   <energy>
    <i name="alphaZ">     90.12805331 </i>
    <i name="ewald">  44629.10415526 </i>
    <i name="hartreedc"> -50638.41832968 </i>
    <i name="XCdc">   -233.47113979 </i>
    <i name="pawpsdc">   4086.20947335 </i>
    <i name="pawaedc">  -3502.14031633 </i>
    <i name="eentropy">     -0.16268389 </i>
    <i name="bandstr">  -1384.52291762 </i>
    <i name="atom">   6761.44252427 </i>
    <i name="e_fr_energy">   -191.83118112 </i>
    <i name="e_wo_entrp">   -191.66849723 </i>
    <i name="e_0_energy">   -191.74983918 </i>
   </energy>
  </scstep>
  <scstep>
   <time name="dav">   33.21   33.29</time>
   <time name="total">   33.72   33.81</time>
   <energy>
    <i name="e_fr_energy">   -191.87709385 </i>
    <i name="e_wo_entrp">   -191.70224671 </i>
    <i name="e_0_energy">   -191.78967028 </i>
   </energy>
  </scstep>
  <scstep>
   <time name="dav">   32.81   32.89</time>
   <time name="total">   33.32   33.41</time>
   <energy>
    <i name="e_fr_energy">   -191.85212091 </i>
    <i name="e_wo_entrp">   -191.69079574 </i>
    <i name="e_0_energy">   -191.77145832 </i>
   </energy>
  </scstep>
  <scstep>
   <time name="dav">   30.80   30.87</time>
   <time name="total">   31.30   31.39</time>
   <energy>
    <i name="e_fr_energy">   -191.84850138 </i>
    <i name="e_wo_entrp">   -191.68404237 </i>
    <i name="e_0_energy">   -191.76627187 </i>
   </energy>
  </scstep>
  <scstep>
   <time name="dav">   31.84   31.92</time>
   <time name="total">   32.35   32.44</time>
   <energy>
    <i name="e_fr_energy">   -191.84800577 </i>
    <i name="e_wo_entrp">   -191.68382218 </i>
    <i name="e_0_energy">   -191.76591397 </i>
   </energy>
  </scstep>
  <scstep>
   <time name="dav">   31.32   31.39</time>
   <time name="total">   31.83   31.91</time>
   <energy>
    <i name="e_fr_energy">   -191.84702342 </i>
    <i name="e_wo_entrp">   -191.68289176 </i>
    <i name="e_0_energy">   -191.76495759 </i>
   </energy>
  </scstep>
  <scstep>
   <time name="dav">   27.83   27.89</time>
   <time name="total">   28.33   28.41</time>
   <energy>
    <i name="e_fr_energy">   -191.84609017 </i>
    <i name="e_wo_entrp">   -191.68195368 </i>
    <i name="e_0_energy">   -191.76402193 </i>
   </energy>
  </scstep>
  <scstep>
   <time name="dav">   21.69   21.74</time>
   <time name="total">   21.73   22.00</time>
   <energy>
    <i name="alphaZ">     90.12805331 </i>
    <i name="ewald">  44629.10415526 </i>
    <i name="hartreedc"> -50640.01219126 </i>
    <i name="XCdc">   -233.40747063 </i>
    <i name="pawpsdc">   4088.51743527 </i>
    <i name="pawaedc">  -3504.46955621 </i>
    <i name="eentropy">     -0.16396990 </i>
    <i name="bandstr">  -1382.98509321 </i>
    <i name="atom">   6761.44252427 </i>
    <i name="e_fr_energy">   -191.84611311 </i>
    <i name="e_wo_entrp">   -191.68214321 </i>
[...]
      <set comment="kpoint 31">
       <r>  -17.5455    1.0000 </r>
       <r>  -17.2412    1.0000 </r>
       <r>  -16.9456    1.0000 </r>
       <r>  -16.6990    1.0000 </r>
       <r>  -16.5366    1.0000 </r>
       <r>  -16.4523    1.0000 </r>
       <r>  -16.3503    1.0000 </r>
       <r>  -16.1744    1.0000 </r>
       <r>  -16.1160    1.0000 </r>
       <r>  -16.0352    1.0000 </r>
       <r>  -15.9549    1.0000 </r>
       <r>  -15.8616    1.0000 </r>
       <r>  -15.7718    1.0000 </r>
       <r>  -15.6048    1.0000 </r>
       <r>  -15.5664    1.0000 </r>
       <r>  -15.4634    1.0000 </r>
       <r>  -15.3642    1.0000 </r>
       <r>  -15.3251    1.0000 </r>
       <r>   -9.7409    1.0000 </r>
       <r>   -9.4723    1.0000 </r>
       <r>   -9.3538    1.0000 </r>
       <r>   -8.9541    1.0000 </r>
       <r>   -8.8820    1.0000 </r>
       <r>   -8.7985    1.0000 </r>
       <r>   -8.5858    1.0000 </r>
       <r>   -8.5071    1.0000 </r>
       <r>   -8.4463    1.0000 </r>
       <r>   -8.2978    1.0000 </r>
       <r>   -8.2618    1.0000 </r>
       <r>   -8.2181    1.0000 </r>
       <r>   -8.1197    1.0000 </r>
       <r>   -8.0920    1.0000 </r>
       <r>   -7.9668    1.0000 </r>
       <r>   -7.9070    1.0000 </r>
       <r>   -7.8411    1.0000 </r>
       <r>   -7.7806    1.0000 </r>
       <r>   -7.5873    1.0000 </r>
       <r>   -7.4456    1.0000 </r>
       <r>   -7.3537    1.0000 </r>
       <r>   -7.2600    1.0000 </r>
       <r>   -7.1697    1.0000 </r>
       <r>   -7.0811    1.0000 </r>
       <r>   -6.9743    1.0000 </r>
       <r>   -6.9128    1.0000 </r>
       <r>   -6.8529    1.0000 </r>
       <r>   -6.7111    1.0000 </r>
       <r>   -6.6383    1.0000 </r>
       <r>   -6.5771    1.0000 </r>
       <r>   -6.5357    1.0000 </r>
       <r>   -6.4882    1.0000 </r>
       <r>   -6.4351    1.0000 </r>
       <r>   -6.3497    1.0000 </r>
       <r>   -6.3083    1.0000 </r>
       <r>   -6.2138    1.0000 </r>
       <r>   -6.1745    1.0000 </r>
       <r>   -6.0385    1.0000 </r>
       <r>   -5.9864    1.0000 </r>
       <r>   -5.8997    1.0000 </r>
       <r>   -5.8188    1.0000 </r>
       <r>   -5.7060    1.0000 </r>
       <r>   -5.6834    1.0000 </r>
       <r>   -5.5328    1.0000 </r>
       <r>   -5.4816    1.0000 </r>
       <r>   -5.4204    1.0000 </r>
       <r>   -5.2124    1.0000 </r>
       <r>   -5.0937    1.0000 </r>
       <r>   -5.0591    1.0000 </r>
       <r>   -4.8935    1.0000 </r>
       <r>   -4.8302    1.0000 </r>
       <r>   -4.7095    1.0000 </r>
       <r>   -4.6203    1.0000 </r>
       <r>   -4.5093    1.0000 </r>
       <r>   -4.3378    1.0000 </r>
       <r>   -4.2531    1.0000 </r>
       <r>   -4.1618    1.0000 </r>
       <r>   -3.9486    1.0000 </r>
       <r>   -3.8564    1.0000 </r>
       <r>   -3.7476    0.9999 </r>
       <r>   -3.6232    0.9977 </r>
       <r>   -3.0890    0.1734 </r>
       <r>   -3.0348    0.0927 </r>
       <r>   -2.8809    0.0079 </r>
       <r>   -2.6865    0.0001 </r>
       <r>   -2.5987    0.0000 </r>
       <r>   -2.4805    0.0000 </r>
       <r>   -2.4029    0.0000 </r>
       <r>   -2.2201    0.0000 </r>
       <r>   -2.1366    0.0000 </r>
       <r>   -2.0770    0.0000 </r>
       <r>   -1.9242    0.0000 </r>
       <r>   -1.6741    0.0000 </r>
       <r>   -1.4324    0.0000 </r>
       <r>   -1.4162    0.0000 </r>
       <r>   -1.2988    0.0000 </r>
       <r>   -1.2495    0.0000 </r>
       <r>   -1.1928    0.0000 </r>
       <r>   -1.0684    0.0000 </r>
       <r>   -0.9786    0.0000 </r>
       <r>   -0.9431    0.0000 </r>
       <r>   -0.8613    0.0000 </r>
       <r>   -0.8377    0.0000 </r>
       <r>   -0.7722    0.0000 </r>
       <r>   -0.6288    0.0000 </r>
       <r>   -0.5459    0.0000 </r>
       <r>   -0.5096    0.0000 </r>
       <r>   -0.3679    0.0000 </r>
       <r>   -0.2864    0.0000 </r>
       <r>   -0.0970    0.0000 </r>
       <r>   -0.0505    0.0000 </r>
       <r>    0.0954    0.0000 </r>
       <r>    0.3676    0.0000 </r>
       <r>    0.6235    0.0000 </r>
       <r>    0.7054    0.0000 </r>
       <r>    0.9560    0.0000 </r>
       <r>    1.1817    0.0000 </r>
       <r>    1.3057    0.0000 </r>
       <r>    1.6426    0.0000 </r>
       <r>    2.1472    0.0000 </r>
       <r>    2.3034    0.0000 </r>
       <r>    2.4016    0.0000 </r>
      </set>
      <set comment="kpoint 32">
       <r>  -17.5446    1.0000 </r>
       <r>  -17.1798    1.0000 </r>
       <r>  -17.0631    1.0000 </r>
       <r>  -16.6984    1.0000 </r>
       <r>  -16.4945    1.0000 </r>
       <r>  -16.3802    1.0000 </r>
       <r>  -16.3192    1.0000 </r>
       <r>  -16.2201    1.0000 </r>
       <r>  -16.1219    1.0000 </r>
       <r>  -16.0840    1.0000 </r>
       <r>  -15.9719    1.0000 </r>
       <r>  -15.8466    1.0000 </r>
       <r>  -15.7864    1.0000 </r>
       <r>  -15.5910    1.0000 </r>
       <r>  -15.5555    1.0000 </r>
       <r>  -15.4633    1.0000 </r>
       <r>  -15.3616    1.0000 </r>
       <r>  -15.3242    1.0000 </r>
       <r>   -9.6755    1.0000 </r>
       <r>   -9.5962    1.0000 </r>
       <r>   -9.4320    1.0000 </r>
       <r>   -8.9300    1.0000 </r>
       <r>   -8.7390    1.0000 </r>
       <r>   -8.6686    1.0000 </r>
       <r>   -8.5382    1.0000 </r>
       <r>   -8.4644    1.0000 </r>
       <r>   -8.4192    1.0000 </r>
       <r>   -8.3893    1.0000 </r>
       <r>   -8.3226    1.0000 </r>
       <r>   -8.2580    1.0000 </r>
       <r>   -8.1746    1.0000 </r>
       <r>   -8.1050    1.0000 </r>
       <r>   -8.0431    1.0000 </r>
       <r>   -7.9313    1.0000 </r>
       <r>   -7.8506    1.0000 </r>
       <r>   -7.7840    1.0000 </r>
       <r>   -7.5543    1.0000 </r>
       <r>   -7.4505    1.0000 </r>
       <r>   -7.3269    1.0000 </r>
       <r>   -7.2764    1.0000 </r>
       <r>   -7.1695    1.0000 </r>
       <r>   -7.0271    1.0000 </r>
       <r>   -6.9531    1.0000 </r>
       <r>   -6.9117    1.0000 </r>
       <r>   -6.8407    1.0000 </r>
       <r>   -6.7556    1.0000 </r>
       <r>   -6.6630    1.0000 </r>
       <r>   -6.5967    1.0000 </r>
       <r>   -6.5075    1.0000 </r>
       <r>   -6.4780    1.0000 </r>
       <r>   -6.4331    1.0000 </r>
       <r>   -6.3771    1.0000 </r>
       <r>   -6.3503    1.0000 </r>
       <r>   -6.1932    1.0000 </r>
       <r>   -6.1244    1.0000 </r>
       <r>   -6.0238    1.0000 </r>
       <r>   -5.9590    1.0000 </r>
       <r>   -5.8680    1.0000 </r>
       <r>   -5.7871    1.0000 </r>
       <r>   -5.7607    1.0000 </r>
       <r>   -5.6544    1.0000 </r>
       <r>   -5.5533    1.0000 </r>
       <r>   -5.5039    1.0000 </r>
       <r>   -5.4094    1.0000 </r>
       <r>   -5.1858    1.0000 </r>
       <r>   -5.0870    1.0000 </r>
       <r>   -5.0027    1.0000 </r>
       <r>   -4.8622    1.0000 </r>
       <r>   -4.8499    1.0000 </r>
       <r>   -4.7900    1.0000 </r>
       <r>   -4.7414    1.0000 </r>
       <r>   -4.5181    1.0000 </r>
       <r>   -4.3435    1.0000 </r>
       <r>   -4.2510    1.0000 </r>
       <r>   -4.1325    1.0000 </r>
       <r>   -3.9659    1.0000 </r>
       <r>   -3.8206    1.0000 </r>
       <r>   -3.7012    0.9996 </r>
       <r>   -3.6537    0.9989 </r>
       <r>   -3.0722    0.1446 </r>
       <r>   -3.0564    0.1207 </r>
       <r>   -2.8384    0.0033 </r>
       <r>   -2.7145    0.0002 </r>
       <r>   -2.5866    0.0000 </r>
       <r>   -2.4988    0.0000 </r>
       <r>   -2.4021    0.0000 </r>
       <r>   -2.2434    0.0000 </r>
       <r>   -2.1328    0.0000 </r>
       <r>   -2.0679    0.0000 </r>
       <r>   -1.9164    0.0000 </r>
       <r>   -1.6892    0.0000 </r>
       <r>   -1.4585    0.0000 </r>
       <r>   -1.4122    0.0000 </r>
       <r>   -1.2820    0.0000 </r>
       <r>   -1.2534    0.0000 </r>
       <r>   -1.1899    0.0000 </r>
       <r>   -1.0484    0.0000 </r>
       <r>   -0.9782    0.0000 </r>
       <r>   -0.8864    0.0000 </r>
       <r>   -0.8628    0.0000 </r>
       <r>   -0.7951    0.0000 </r>
       <r>   -0.7255    0.0000 </r>
       <r>   -0.6504    0.0000 </r>
       <r>   -0.6147    0.0000 </r>
       <r>   -0.5438    0.0000 </r>
       <r>   -0.3754    0.0000 </r>
       <r>   -0.3019    0.0000 </r>
       <r>   -0.0736    0.0000 </r>
       <r>   -0.0293    0.0000 </r>
       <r>    0.1438    0.0000 </r>
       <r>    0.3882    0.0000 </r>
       <r>    0.5956    0.0000 </r>
       <r>    0.7746    0.0000 </r>
       <r>    0.9221    0.0000 </r>
       <r>    1.1324    0.0000 </r>
       <r>    1.2711    0.0000 </r>
       <r>    1.6188    0.0000 </r>
       <r>    2.1180    0.0000 </r>
       <r>    2.2700    0.0000 </r>
       <r>    2.5816    0.0000 </r>
      </set>
      <set comment="kpoint 33">
       <r>  -17.5139    1.0000 </r>
       <r>  -17.2989    1.0000 </r>
       <r>  -16.9267    1.0000 </r>
       <r>  -16.6963    1.0000 </r>
       <r>  -16.5024    1.0000 </r>
       <r>  -16.4842    1.0000 </r>
       <r>  -16.3239    1.0000 </r>
       <r>  -16.1931    1.0000 </r>
       <r>  -16.1444    1.0000 </r>
       <r>  -16.0642    1.0000 </r>
       <r>  -15.9021    1.0000 </r>
       <r>  -15.8298    1.0000 </r>
       <r>  -15.7885    1.0000 </r>
       <r>  -15.6254    1.0000 </r>
       <r>  -15.5694    1.0000 </r>
       <r>  -15.4626    1.0000 </r>
       <r>  -15.3550    1.0000 </r>
       <r>  -15.3244    1.0000 </r>
       <r>   -9.7771    1.0000 </r>
       <r>   -9.4476    1.0000 </r>
       <r>   -9.4062    1.0000 </r>
       <r>   -8.9123    1.0000 </r>
       <r>   -8.8365    1.0000 </r>
       <r>   -8.7528    1.0000 </r>
       <r>   -8.6274    1.0000 </r>
       <r>   -8.5741    1.0000 </r>
       <r>   -8.4165    1.0000 </r>
       <r>   -8.3073    1.0000 </r>
       <r>   -8.2503    1.0000 </r>
       <r>   -8.1666    1.0000 </r>
       <r>   -8.1351    1.0000 </r>
       <r>   -8.0688    1.0000 </r>
       <r>   -8.0130    1.0000 </r>
       <r>   -7.8988    1.0000 </r>
       <r>   -7.8444    1.0000 </r>
       <r>   -7.8135    1.0000 </r>
       <r>   -7.5514    1.0000 </r>
       <r>   -7.4414    1.0000 </r>
       <r>   -7.3968    1.0000 </r>
       <r>   -7.3245    1.0000 </r>
       <r>   -7.1426    1.0000 </r>
       <r>   -7.0012    1.0000 </r>
       <r>   -6.9641    1.0000 </r>
       <r>   -6.8714    1.0000 </r>
       <r>   -6.8344    1.0000 </r>
       <r>   -6.7679    1.0000 </r>
       <r>   -6.6782    1.0000 </r>
       <r>   -6.5873    1.0000 </r>
       <r>   -6.5239    1.0000 </r>
       <r>   -6.5018    1.0000 </r>
       <r>   -6.4400    1.0000 </r>
       <r>   -6.3536    1.0000 </r>
       <r>   -6.2904    1.0000 </r>
       <r>   -6.1971    1.0000 </r>
       <r>   -6.1285    1.0000 </r>
       <r>   -6.0515    1.0000 </r>
       <r>   -6.0013    1.0000 </r>
       <r>   -5.9208    1.0000 </r>
       <r>   -5.8428    1.0000 </r>
       <r>   -5.7162    1.0000 </r>
       <r>   -5.6475    1.0000 </r>
       <r>   -5.5324    1.0000 </r>
       <r>   -5.5038    1.0000 </r>
       <r>   -5.4143    1.0000 </r>
       <r>   -5.1986    1.0000 </r>
       <r>   -5.1039    1.0000 </r>
       <r>   -5.0440    1.0000 </r>
       <r>   -4.8650    1.0000 </r>
       <r>   -4.8245    1.0000 </r>
       <r>   -4.6831    1.0000 </r>
       <r>   -4.6565    1.0000 </r>
       <r>   -4.5420    1.0000 </r>
       <r>   -4.3485    1.0000 </r>
       <r>   -4.2719    1.0000 </r>
       <r>   -4.1219    1.0000 </r>
       <r>   -4.0527    1.0000 </r>
       <r>   -3.7956    1.0000 </r>
       <r>   -3.7312    0.9998 </r>
       <r>   -3.6380    0.9984 </r>
       <r>   -3.1011    0.1961 </r>
       <r>   -3.0235    0.0801 </r>
       <r>   -2.8667    0.0060 </r>
       <r>   -2.7091    0.0001 </r>
       <r>   -2.6054    0.0000 </r>
       <r>   -2.5231    0.0000 </r>
       <r>   -2.3695    0.0000 </r>
       <r>   -2.2193    0.0000 </r>
       <r>   -2.1179    0.0000 </r>
       <r>   -2.0340    0.0000 </r>
       <r>   -1.9117    0.0000 </r>
       <r>   -1.7060    0.0000 </r>
       <r>   -1.4889    0.0000 </r>
       <r>   -1.3760    0.0000 </r>
       <r>   -1.2736    0.0000 </r>
       <r>   -1.2542    0.0000 </r>
       <r>   -1.1788    0.0000 </r>
       <r>   -1.0666    0.0000 </r>
       <r>   -0.9823    0.0000 </r>
       <r>   -0.8899    0.0000 </r>
       <r>   -0.8402    0.0000 </r>
       <r>   -0.7973    0.0000 </r>
       <r>   -0.7312    0.0000 </r>
       <r>   -0.6330    0.0000 </r>
       <r>   -0.6028    0.0000 </r>
       <r>   -0.5570    0.0000 </r>
       <r>   -0.4106    0.0000 </r>
       <r>   -0.3589    0.0000 </r>
       <r>   -0.0687    0.0000 </r>
       <r>   -0.0458    0.0000 </r>
       <r>    0.2301    0.0000 </r>
       <r>    0.4241    0.0000 </r>
       <r>    0.5835    0.0000 </r>
       <r>    0.8763    0.0000 </r>
       <r>    0.9233    0.0000 </r>
       <r>    1.0744    0.0000 </r>
       <r>    1.2386    0.0000 </r>
       <r>    1.5912    0.0000 </r>
       <r>    2.1512    0.0000 </r>
       <r>    2.3032    0.0000 </r>
       <r>    2.4121    0.0000 </r>
      </set>
      <set comment="kpoint 34">
       <r>  -17.4743    1.0000 </r>
       <r>  -17.3773    1.0000 </r>
       <r>  -16.7952    1.0000 </r>
       <r>  -16.6806    1.0000 </r>
       <r>  -16.6477    1.0000 </r>
       <r>  -16.4924    1.0000 </r>
       <r>  -16.3215    1.0000 </r>
       <r>  -16.1863    1.0000 </r>
       <r>  -16.1502    1.0000 </r>
       <r>  -16.0547    1.0000 </r>
       <r>  -15.8260    1.0000 </r>
       <r>  -15.8225    1.0000 </r>
       <r>  -15.7782    1.0000 </r>
       <r>  -15.6801    1.0000 </r>
       <r>  -15.5796    1.0000 </r>
       <r>  -15.4626    1.0000 </r>
       <r>  -15.3513    1.0000 </r>
       <r>  -15.3246    1.0000 </r>
       <r>   -9.8177    1.0000 </r>
       <r>   -9.3749    1.0000 </r>
       <r>   -9.3149    1.0000 </r>
       <r>   -8.9668    1.0000 </r>
       <r>   -8.9342    1.0000 </r>
       <r>   -8.8147    1.0000 </r>
       <r>   -8.6690    1.0000 </r>
       <r>   -8.5920    1.0000 </r>
       <r>   -8.4310    1.0000 </r>
       <r>   -8.2978    1.0000 </r>
       <r>   -8.2320    1.0000 </r>
       <r>   -8.1504    1.0000 </r>
       <r>   -8.1017    1.0000 </r>
       <r>   -8.0196    1.0000 </r>
       <r>   -7.9166    1.0000 </r>
       <r>   -7.8678    1.0000 </r>
       <r>   -7.8520    1.0000 </r>
       <r>   -7.7346    1.0000 </r>
       <r>   -7.6144    1.0000 </r>
       <r>   -7.5148    1.0000 </r>
       <r>   -7.3974    1.0000 </r>
       <r>   -7.3455    1.0000 </r>
       <r>   -7.1178    1.0000 </r>
       <r>   -7.0397    1.0000 </r>
       <r>   -6.9861    1.0000 </r>
       <r>   -6.8648    1.0000 </r>
       <r>   -6.8170    1.0000 </r>
       <r>   -6.7054    1.0000 </r>
       <r>   -6.6184    1.0000 </r>
       <r>   -6.6020    1.0000 </r>
       <r>   -6.5394    1.0000 </r>
       <r>   -6.5119    1.0000 </r>
       <r>   -6.4328    1.0000 </r>
       <r>   -6.3885    1.0000 </r>
       <r>   -6.2833    1.0000 </r>
       <r>   -6.2588    1.0000 </r>
       <r>   -6.1791    1.0000 </r>
       <r>   -6.0396    1.0000 </r>
       <r>   -5.9994    1.0000 </r>
       <r>   -5.8417    1.0000 </r>
       <r>   -5.8226    1.0000 </r>
       <r>   -5.8001    1.0000 </r>
       <r>   -5.6329    1.0000 </r>
       <r>   -5.5942    1.0000 </r>
       <r>   -5.4868    1.0000 </r>
       <r>   -5.4132    1.0000 </r>
       <r>   -5.2145    1.0000 </r>
       <r>   -5.1186    1.0000 </r>
       <r>   -4.9963    1.0000 </r>
       <r>   -4.9060    1.0000 </r>
       <r>   -4.8298    1.0000 </r>
       <r>   -4.6039    1.0000 </r>
       <r>   -4.5610    1.0000 </r>
       <r>   -4.5281    1.0000 </r>
       <r>   -4.3187    1.0000 </r>
       <r>   -4.2877    1.0000 </r>
       <r>   -4.2121    1.0000 </r>
       <r>   -4.0754    1.0000 </r>
       <r>   -3.7979    1.0000 </r>
       <r>   -3.7441    0.9999 </r>
       <r>   -3.6297    0.9980 </r>
       <r>   -3.1127    0.2196 </r>
       <r>   -3.0038    0.0613 </r>
       <r>   -2.9015    0.0117 </r>
       <r>   -2.6962    0.0001 </r>
       <r>   -2.6249    0.0000 </r>
       <r>   -2.5311    0.0000 </r>
       <r>   -2.3485    0.0000 </r>
       <r>   -2.1925    0.0000 </r>
       <r>   -2.1092    0.0000 </r>
       <r>   -2.0104    0.0000 </r>
       <r>   -1.9179    0.0000 </r>
       <r>   -1.7154    0.0000 </r>
       <r>   -1.5001    0.0000 </r>
       <r>   -1.3322    0.0000 </r>
       <r>   -1.3006    0.0000 </r>
       <r>   -1.2401    0.0000 </r>
       <r>   -1.1808    0.0000 </r>
       <r>   -1.0828    0.0000 </r>
       <r>   -0.9826    0.0000 </r>
       <r>   -0.8963    0.0000 </r>
       <r>   -0.8364    0.0000 </r>
       <r>   -0.7959    0.0000 </r>
       <r>   -0.7432    0.0000 </r>
       <r>   -0.6286    0.0000 </r>
       <r>   -0.6049    0.0000 </r>
       <r>   -0.5780    0.0000 </r>
       <r>   -0.4241    0.0000 </r>
       <r>   -0.3345    0.0000 </r>
       <r>   -0.0925    0.0000 </r>
       <r>   -0.0606    0.0000 </r>
       <r>    0.2645    0.0000 </r>
       <r>    0.4424    0.0000 </r>
       <r>    0.5892    0.0000 </r>
       <r>    0.9287    0.0000 </r>
       <r>    0.9515    0.0000 </r>
       <r>    1.0328    0.0000 </r>
       <r>    1.2227    0.0000 </r>
       <r>    1.5775    0.0000 </r>
       <r>    2.2303    0.0000 </r>
       <r>    2.2699    0.0000 </r>
       <r>    2.3943    0.0000 </r>
      </set>
     </set>
    </set>
   </array>
  </eigenvalues>
  <separator name="orbital magnetization" >
   <v name="MAGDIPOLOUT">      0.00000000      0.00000000      0.00000000</v>
  </separator>
 </calculation>
 <structure name="finalpos" >
  <crystal>
   <varray name="basis" >
    <v>       8.32141879       4.82574336       0.00000000 </v>
    <v>      -8.30850883       4.80334252       0.00000000 </v>
    <v>       0.00000000       0.00000000      30.00000000 </v>
   </varray>
   <i name="volume">   2401.96067849 </i>
   <varray name="rec_basis" >
    <v>       0.05999277       0.10377158       0.00000000 </v>
    <v>      -0.06027255       0.10393283       0.00000000 </v>
    <v>       0.00000000       0.00000000       0.03333333 </v>
   </varray>
  </crystal>
  <varray name="positions" >
   <v>       0.62800148      -0.01890132       0.00249026 </v>
   <v>       0.03249823       0.01649720      -0.00150062 </v>
   <v>       0.03966852       0.68716665      -0.00242281 </v>
   <v>       0.33822193       0.33759394      -0.00025501 </v>
   <v>       0.33317043       0.64651052      -0.00009417 </v>
   <v>       0.33723277       0.02095183      -0.00012867 </v>
   <v>       1.03589187       0.34868733      -0.00138802 </v>
   <v>       0.62977641       0.31849760       0.00174848 </v>
   <v>       0.63133899       0.64624807       0.00146980 </v>
   <v>       0.11066628       0.21774805       0.94516247 </v>
   <v>       0.21879330       0.11137811       0.05392124 </v>
   <v>       0.11446152       0.55853255       0.94493727 </v>
   <v>       0.22598729       0.44297821       0.05613966 </v>
   <v>       0.11142152       0.89148660       0.94640541 </v>
   <v>       0.22724231       0.78052245       0.05008526 </v>
   <v>       0.44121037       0.22351615       0.94361237 </v>
   <v>       0.55268916       0.10891659       0.05543029 </v>
   <v>       0.44091105       0.55119592       0.94338913 </v>
   <v>       0.55249968       0.44293381       0.05726593 </v>
   <v>       0.44043321       0.88682532       0.94954812 </v>
   <v>       0.55307581       0.77789842       0.05499510 </v>
   <v>       0.77566747       0.21836814       0.95722214 </v>
   <v>       0.88629464       0.10724324       0.04361466 </v>
   <v>       0.78174161       0.55725159       0.95521756 </v>
   <v>       0.89055800       0.44898868       0.04306984 </v>
   <v>       0.77691497       0.89132149       0.95771817 </v>
   <v>       0.89184563       0.77785734       0.04234603 </v>
  </varray>
 </structure>
</modeling>
