unknown system                          
           1
     8.856246    5.109213    0.000000
    -8.852684    5.103085    0.000000
     0.000000    0.000000   30.000000
   V    Mo   W    S 
   3   3   3  18
Direct configuration=     1
   0.66666669  0.00000000  0.00000000
   0.00000000  0.00000000  0.00000000
   0.00000000  0.66666669  0.00000000
   0.33333334  0.33333334  0.00000000
   0.33333334  0.66666669  0.00000000
   0.33333334  0.00000000  0.00000000
   1.00000000  0.33333334  0.00000000
   0.66666669  0.33333334  0.00000000
   0.66666669  0.66666669  0.00000000
   0.11068511  0.22244981  0.95539999
   0.22244981  0.11068511  0.04460000
   0.11068511  0.55578315  0.95539999
   0.22244981  0.44401845  0.04460000
   0.11068511  0.88911647  0.95539999
   0.22244981  0.77735180  0.04460000
   0.44401845  0.22244981  0.95539999
   0.55578315  0.11068511  0.04460000
   0.44401845  0.55578315  0.95539999
   0.55578315  0.44401845  0.04460000
   0.44401845  0.88911647  0.95539999
   0.55578315  0.77735180  0.04460000
   0.77735180  0.22244981  0.95539999
   0.88911647  0.11068511  0.04460000
   0.77735180  0.55578315  0.95539999
   0.88911647  0.44401845  0.04460000
   0.77735180  0.88911647  0.95539999
   0.88911647  0.77735180  0.04460000
unknown system                          
           1
     8.668466    5.002916    0.000000
    -8.665273    4.997425    0.000000
     0.000000    0.000000   30.000000
   V    Mo   W    S 
   3   3   3  18
Direct configuration=     2
   0.66473798 -0.00112022  0.00012864
   0.00187881  0.00074388  0.00001350
   0.00229672  0.66813164 -0.00014197
   0.33345640  0.33336172  0.00003846
   0.33324124  0.66666549 -0.00017962
   0.33311908 -0.00014108 -0.00002380
   1.00272708  0.33427251  0.00005486
   0.66364605  0.33179122  0.00018582
   0.66443897  0.66601059 -0.00000654
   0.10840945  0.21812562  0.95190258
   0.21770404  0.10886959  0.04804292
   0.10812535  0.55704962  0.95192638
   0.22116518  0.44379960  0.04923616
   0.10652178  0.88670049  0.95308070
   0.21770195  0.77556065  0.04804562
   0.44522415  0.22260558  0.95073033
   0.55856061  0.10961134  0.04806265
   0.44523433  0.55593474  0.95072800
   0.55628104  0.44469727  0.04933019
   0.44872182  0.89089441  0.95194940
   0.55827737  0.78189774  0.04810567
   0.77598525  0.21843958  0.95199964
   0.88718692  0.10752851  0.04686637
   0.78159905  0.55735048  0.95193135
   0.89047206  0.44798287  0.04800781
   0.77918966  0.89225195  0.95315392
   0.89231213  0.77919866  0.04683085
unknown system                          
           1
     8.486448    4.902070    0.000000
    -8.484740    4.899148    0.000000
     0.000000    0.000000   30.000000
   V    Mo   W    S 
   3   3   3  18
Direct configuration=     3
   0.66410606 -0.00146320  0.00008783
   0.00247000  0.00106369  0.00006157
   0.00306281  0.66852366 -0.00011124
   0.33383977  0.33368623  0.00004585
   0.33315277  0.66636093 -0.00020215
   0.33337178  0.00010856 -0.00002103
   1.00381017  0.33479612  0.00010024
   0.66245749  0.33136069  0.00015015
   0.66338803  0.66531845 -0.00006126
   0.10823029  0.21813838  0.95187526
   0.21753505  0.10875600  0.04807307
   0.10798967  0.55687908  0.95186161
   0.22094283  0.44368269  0.04931435
   0.10644010  0.88664261  0.95306012
   0.21756686  0.77548211  0.04806082
   0.44545772  0.22274177  0.95065265
   0.55871309  0.10978339  0.04813009
   0.44546842  0.55606791  0.95063169
   0.55648124  0.44477276  0.04941430
   0.44886365  0.89097501  0.95191619
   0.55846495  0.78190362  0.04813767
   0.77605337  0.21860078  0.95216409
   0.88726999  0.10770961  0.04675748
   0.78143271  0.55729889  0.95206325
   0.89040747  0.44782013  0.04786215
   0.77912567  0.89206698  0.95328330
   0.89211250  0.77913758  0.04669185
unknown system                          
           1
     8.275600    4.787550    0.000000
    -8.268264    4.774878    0.000000
     0.000000    0.000000   30.000000
   V    Mo   W    S 
   3   3   3  18
Direct configuration=     4
   0.66153696 -0.00259790 -0.00010561
   0.00468326  0.00243864  0.00023802
   0.00600799  0.66962078  0.00006615
   0.33586214  0.33536447  0.00005354
   0.33255107  0.66470669 -0.00020234
   0.33496611  0.00157593  0.00001000
   1.00796243  0.33709797  0.00022407
   0.65766818  0.32980524 -0.00004010
   0.65907859  0.66194599 -0.00022831
   0.10770439  0.21709093  0.95029435
   0.21628350  0.10799649  0.04959985
   0.10752368  0.55739414  0.95010976
   0.22109966  0.44376533  0.05124763
   0.10553480  0.88614131  0.95166327
   0.21646451  0.77494911  0.04950529
   0.44532533  0.22269045  0.94872101
   0.55911619  0.10915712  0.04988910
   0.44539064  0.55607781  0.94860896
   0.55645213  0.44474566  0.05144111
   0.45004529  0.89163965  0.95038072
   0.55899092  0.78299313  0.04972618
   0.77581825  0.21796172  0.95141649
   0.88677726  0.10686952  0.04764452
   0.78226388  0.55777903  0.95113547
   0.89072269  0.44854151  0.04868565
   0.77970067  0.89291247  0.95247296
   0.89268394  0.77955125  0.04744218
unknown system                          
           1
     8.271622    4.793485    0.000000
    -8.259617    4.772721    0.000000
     0.000000    0.000000   30.000000
   V    Mo   W    S 
   3   3   3  18
Direct configuration=     5
   0.65627845 -0.00501482 -0.00044285
   0.00873332  0.00510968  0.00045596
   0.01268216  0.67194822  0.00038235
   0.34042895  0.33926705  0.00000540
   0.33108937  0.66090050 -0.00008733
   0.33844116  0.00473378  0.00007124
   1.01707348  0.34193482  0.00025708
   0.64719753  0.32665979 -0.00023924
   0.65046504  0.65516184 -0.00033413
   0.10805225  0.21640327  0.94816135
   0.21569387  0.10772447  0.05173016
   0.10772472  0.55831394  0.94753126
   0.22231692  0.44422788  0.05407615
   0.10533981  0.88607751  0.94961708
   0.21621959  0.77499162  0.05150964
   0.44386093  0.22202977  0.94580804
   0.55909370  0.10845463  0.05242814
   0.44431183  0.55563497  0.94555584
   0.55572994  0.44443557  0.05449688
   0.45048205  0.89174152  0.94823480
   0.55884363  0.78357815  0.05183775
   0.77603583  0.21793100  0.95091833
   0.88644150  0.10631090  0.04873327
   0.78279950  0.55806567  0.95013019
   0.89041552  0.44879287  0.04935690
   0.77997124  0.89317333  0.95161479
   0.89249219  0.77962653  0.04819086
unknown system                          
           1
     8.277637    4.799144    0.000000
    -8.263363    4.774455    0.000000
     0.000000    0.000000   30.000000
   V    Mo   W    S 
   3   3   3  18
Direct configuration=     6
   0.65361610 -0.00656338 -0.00043048
   0.01078475  0.00646055  0.00049190
   0.01631367  0.67350637  0.00030430
   0.34081306  0.33982801 -0.00012328
   0.33078364  0.65991011 -0.00010827
   0.33889356  0.00548824 -0.00001368
   1.02059597  0.34354794  0.00014344
   0.64408849  0.32565502 -0.00004973
   0.64773402  0.65330038 -0.00026009
   0.10887579  0.21697280  0.94796721
   0.21658997  0.10833126  0.05188388
   0.10830034  0.55852909  0.94723749
   0.22333735  0.44440745  0.05453486
   0.10594187  0.88636250  0.94951377
   0.21744572  0.77568334  0.05171698
   0.44254580  0.22159416  0.94532418
   0.55886777  0.10870484  0.05268028
   0.44358505  0.55541476  0.94511151
   0.55530294  0.44422632  0.05500141
   0.44956646  0.89108435  0.94810034
   0.55835237  0.78297693  0.05201114
   0.77662572  0.21917423  0.95149358
   0.88676656  0.10705895  0.04849638
   0.78209718  0.55755366  0.95046260
   0.88948813  0.44782877  0.04880430
   0.77930861  0.89218805  0.95188634
   0.89159355  0.77898976  0.04781956
unknown system                          
           1
     8.284004    4.815555    0.000000
    -8.259780    4.773641    0.000000
     0.000000    0.000000   30.000000
   V    Mo   W    S 
   3   3   3  18
Direct configuration=     7
   0.65058238 -0.00848377 -0.00042740
   0.01333716  0.00812783  0.00060661
   0.02014819  0.67528375  0.00028531
   0.34088720  0.34012150 -0.00017661
   0.33076479  0.65901899 -0.00005430
   0.33915440  0.00631003 -0.00007731
   1.02423925  0.34522536  0.00014302
   0.64071193  0.32435797 -0.00000078
   0.64479580  0.65153591 -0.00022745
   0.10938732  0.21725232  0.94771912
   0.21727509  0.10875910  0.05195778
   0.10887667  0.55875367  0.94695749
   0.22418388  0.44464194  0.05482707
   0.10632322  0.88652471  0.94941726
   0.21853257  0.77626104  0.05181727
   0.44167824  0.22130726  0.94505110
   0.55850423  0.10873392  0.05286785
   0.44299239  0.55524810  0.94479775
   0.55473568  0.44402687  0.05537037
   0.44881326  0.89057154  0.94802173
   0.55796471  0.78262104  0.05217627
   0.77720046  0.22018115  0.95223709
   0.88705809  0.10778477  0.04805655
   0.78158964  0.55709342  0.95097410
   0.88881871  0.44714119  0.04808995
   0.77873083  0.89140137  0.95233298
   0.89092835  0.77841348  0.04725709
unknown system                          
           1
     8.288289    4.829892    0.000000
    -8.255493    4.773126    0.000000
     0.000000    0.000000   30.000000
   V    Mo   W    S 
   3   3   3  18
Direct configuration=     8
   0.64564750 -0.01167854 -0.00037030
   0.01777346  0.01097090  0.00064911
   0.02583373  0.67793357  0.00014152
   0.34060227  0.34033619 -0.00031245
   0.33103045  0.65766203 -0.00004508
   0.33933742  0.00760300 -0.00018998
   1.02934423  0.34771849 -0.00008255
   0.63611285  0.32239122  0.00027049
   0.64024316  0.64909533 -0.00007660
   0.10983316  0.21743344  0.94730180
   0.21825285  0.10929839  0.05225851
   0.10976465  0.55907886  0.94653674
   0.22574807  0.44518539  0.05545421
   0.10668816  0.88673305  0.94919198
   0.22028619  0.77718191  0.05206898
   0.44013333  0.22073889  0.94449841
   0.55793134  0.10869275  0.05319144
   0.44186248  0.55479489  0.94424663
   0.55394096  0.44371570  0.05591985
   0.44765600  0.88987833  0.94782487
   0.55760971  0.78230686  0.05255819
   0.77798036  0.22136675  0.95340188
   0.88740995  0.10873640  0.04736811
   0.78107196  0.55657665  0.95177223
   0.88801224  0.44637256  0.04699226
   0.77798134  0.89045101  0.95307223
   0.89012665  0.77764043  0.04635742
unknown system                          
           1
     8.297420    4.832001    0.000000
    -8.269410    4.783486    0.000000
     0.000000    0.000000   30.000000
   V    Mo   W    S 
   3   3   3  18
Direct configuration=     9
   0.63816956 -0.01651208 -0.00004990
   0.02514660  0.01528379  0.00058751
   0.03380818  0.68182959 -0.00021934
   0.33969719  0.34032967 -0.00041321
   0.33179438  0.65494037  0.00009026
   0.33907091  0.01027643 -0.00036556
   1.03587371  0.35119760 -0.00034406
   0.63011379  0.31936360  0.00065814
   0.63373459  0.64622604  0.00026981
   0.11024907  0.21737428  0.94655955
   0.21985923  0.11009834  0.05281289
   0.11150962  0.55985138  0.94585912
   0.22800221  0.44609006  0.05613843
   0.10724353  0.88711815  0.94876869
   0.22324806  0.77866174  0.05231218
   0.43811168  0.21994538  0.94386085
   0.55669421  0.10821021  0.05370493
   0.43998765  0.55382163  0.94346260
   0.55248615  0.44319701  0.05663734
   0.44548105  0.88873328  0.94748536
   0.55705363  0.78191412  0.05324940
   0.77913203  0.22268364  0.95535639
   0.88794689  0.11008060  0.04602217
   0.78053085  0.55603430  0.95326638
   0.88717636  0.44567861  0.04513887
   0.77704270  0.88928962  0.95444698
   0.88905062  0.77649709  0.04470413
unknown system                          
           1
     8.297783    4.831096    0.000000
    -8.271971    4.786362    0.000000
     0.000000    0.000000   30.000000
   V    Mo   W    S 
   3   3   3  18
Direct configuration=    10
   0.63760233 -0.01648479  0.00012344
   0.02567624  0.01521757  0.00031101
   0.03343988  0.68180914 -0.00040492
   0.33937249  0.33998887 -0.00044173
   0.33218889  0.65443734 -0.00001156
   0.33897130  0.01125079 -0.00036445
   1.03499778  0.35082340 -0.00057665
   0.63075404  0.31931484  0.00082741
   0.63389959  0.64663621  0.00042692
   0.11004919  0.21726326  0.94651588
   0.22014115  0.11026824  0.05302337
   0.11194658  0.55994217  0.94582016
   0.22815118  0.44611759  0.05620083
   0.10733921  0.88737118  0.94860732
   0.22378460  0.77886602  0.05222720
   0.43810765  0.22002224  0.94385104
   0.55640146  0.10796780  0.05378490
   0.43971914  0.55349667  0.94347017
   0.55241398  0.44311336  0.05661159
   0.44507257  0.88852609  0.94757121
   0.55691844  0.78183284  0.05344503
   0.77898542  0.22223282  0.95552823
   0.88780624  0.10981015  0.04579175
   0.78072880  0.55625250  0.95348330
   0.88737929  0.44601723  0.04500820
   0.77726429  0.88958399  0.95471389
   0.88910274  0.77653695  0.04445639
unknown system                          
           1
     8.302941    4.830401    0.000000
    -8.280219    4.791010    0.000000
     0.000000    0.000000   30.000000
   V    Mo   W    S 
   3   3   3  18
Direct configuration=    11
   0.63371855 -0.01851239  0.00047228
   0.02943412  0.01690986  0.00004465
   0.03674719  0.68369930 -0.00068768
   0.33873493  0.33957974 -0.00042778
   0.33280645  0.65241139  0.00003642
   0.33872557  0.01377716 -0.00038772
   1.03746951  0.35206188 -0.00074167
   0.62842076  0.31783343  0.00108575
   0.63109971  0.64575345  0.00069153
   0.11003008  0.21717352  0.94613578
   0.22093121  0.11073749  0.05335559
   0.11307231  0.56031027  0.94548798
   0.22878230  0.44630787  0.05632744
   0.10779477  0.88784570  0.94823524
   0.22531444  0.77955465  0.05203963
   0.43765424  0.22000671  0.94365879
   0.55556828  0.10758724  0.05409682
   0.43895276  0.55278271  0.94321633
   0.55181211  0.44281392  0.05684829
   0.44376752  0.88789103  0.94762783
   0.55644696  0.78148483  0.05387924
   0.77912389  0.22220322  0.95646671
   0.88788552  0.11001874  0.04494678
   0.78064793  0.55620519  0.95434664
   0.88734677  0.44613246  0.04412185
   0.77710726  0.88943460  0.95560750
   0.88881929  0.77621049  0.04351570
unknown system                          
           1
     8.307678    4.831380    0.000000
    -8.286190    4.794125    0.000000
     0.000000    0.000000   30.000000
   V    Mo   W    S 
   3   3   3  18
Direct configuration=    12
   0.63358061 -0.01822983  0.00060904
   0.02939937  0.01655783 -0.00012850
   0.03642872  0.68372303 -0.00078852
   0.33859440  0.33922700 -0.00040640
   0.33291916  0.65201657 -0.00000667
   0.33855022  0.01456474 -0.00035395
   1.03684190  0.35160082 -0.00081673
   0.62898391  0.31799465  0.00113073
   0.63151279  0.64604761  0.00075441
   0.10993979  0.21719560  0.94607454
   0.22091129  0.11083810  0.05344347
   0.11324940  0.56025656  0.94547115
   0.22852615  0.44609289  0.05629273
   0.10802820  0.88810334  0.94807487
   0.22546516  0.77959688  0.05184226
   0.43798498  0.22031928  0.94366218
   0.55537785  0.10753663  0.05420938
   0.43905999  0.55256690  0.94325507
   0.55190468  0.44280037  0.05684502
   0.44347946  0.88778561  0.94780111
   0.55621905  0.78128837  0.05398421
   0.77876005  0.22173014  0.95646326
   0.88773228  0.10967254  0.04482918
   0.78073839  0.55631569  0.95441912
   0.88766846  0.44644481  0.04412722
   0.77728622  0.88973833  0.95577581
   0.88907199  0.77642998  0.04343592
unknown system                          
           1
     8.305371    4.828170    0.000000
    -8.285233    4.793250    0.000000
     0.000000    0.000000   30.000000
   V    Mo   W    S 
   3   3   3  18
Direct configuration=    13
   0.63317750 -0.01827787  0.00072387
   0.02975489  0.01654645 -0.00023615
   0.03664237  0.68396143 -0.00087374
   0.33846676  0.33900768 -0.00038997
   0.33297164  0.65159443 -0.00001250
   0.33836224  0.01514455 -0.00033607
   1.03680945  0.35147003 -0.00085240
   0.62901677  0.31793735  0.00118367
   0.63143595  0.64610571  0.00081035
   0.10989692  0.21718276  0.94602831
   0.22083966  0.11087812  0.05348128
   0.11336077  0.56023718  0.94545452
   0.22837755  0.44595314  0.05625922
   0.10818204  0.88826254  0.94798397
   0.22558080  0.77964012  0.05170379
   0.43818587  0.22052098  0.94365976
   0.55524461  0.10754962  0.05427516
   0.43913706  0.55243600  0.94327235
   0.55195048  0.44278837  0.05685008
   0.44327110  0.88771495  0.94791461
   0.55606694  0.78114100  0.05404034
   0.77856487  0.22148925  0.95651224
   0.88765994  0.10949434  0.04471257
   0.78080705  0.55637184  0.95450419
   0.88785092  0.44662654  0.04406724
   0.77736745  0.88989077  0.95592460
   0.88923285  0.77654720  0.04333863
unknown system                          
           1
     8.307564    4.826393    0.000000
    -8.289666    4.795348    0.000000
     0.000000    0.000000   30.000000
   V    Mo   W    S 
   3   3   3  18
Direct configuration=    14
   0.63248216 -0.01837463  0.00089524
   0.03025788  0.01652375 -0.00039958
   0.03697449  0.68431448 -0.00101609
   0.33839281  0.33874132 -0.00037140
   0.33308106  0.65081955 -0.00003281
   0.33822537  0.01621007 -0.00031098
   1.03678529  0.35128019 -0.00091784
   0.62898702  0.31785295  0.00125712
   0.63126816  0.64611226  0.00088968
   0.10986464  0.21723049  0.94594447
   0.22076986  0.11098169  0.05356019
   0.11355063  0.56015276  0.94542240
   0.22815116  0.44570738  0.05621778
   0.10848755  0.88855178  0.94781391
   0.22583870  0.77976136  0.05148752
   0.43850232  0.22084944  0.94366232
   0.55497854  0.10759640  0.05438585
   0.43924467  0.55221032  0.94330381
   0.55200391  0.44276231  0.05686068
   0.44289201  0.88759874  0.94811123
   0.55579010  0.78085137  0.05413844
   0.77825354  0.22113523  0.95662111
   0.88756442  0.10926425  0.04451641
   0.78085384  0.55643090  0.95466057
   0.88813920  0.44687705  0.04394328
   0.77742168  0.89007027  0.95618281
   0.88945346  0.77670276  0.04317377
unknown system                          
           1
     8.316387    4.830352    0.000000
    -8.298766    4.799791    0.000000
     0.000000    0.000000   30.000000
   V    Mo   W    S 
   3   3   3  18
Direct configuration=    15
   0.63161549 -0.01842785  0.00115709
   0.03091001  0.01649151 -0.00063838
   0.03741541  0.68480045 -0.00123387
   0.33828008  0.33838749 -0.00034479
   0.33316415  0.64978872 -0.00005295
   0.33796363  0.01755162 -0.00027119
   1.03666146  0.35092033 -0.00101685
   0.62909198  0.31786503  0.00136897
   0.63116015  0.64609844  0.00101497
   0.10987220  0.21727693  0.94578186
   0.22060936  0.11111490  0.05370343
   0.11379929  0.56001395  0.94532480
   0.22787130  0.44532889  0.05623107
   0.10896539  0.88901110  0.94753846
   0.22624218  0.77996354  0.05123149
   0.43890657  0.22130745  0.94359487
   0.55458361  0.10770603  0.05459179
   0.43939014  0.55190182  0.94327460
   0.55208450  0.44274908  0.05694856
   0.44228756  0.88739695  0.94834130
   0.55534285  0.78038420  0.05431752
   0.77785573  0.22070026  0.95672099
   0.88740940  0.10893101  0.04431570
   0.78096744  0.55653056  0.95480511
   0.88849725  0.44719874  0.04380915
   0.77750428  0.89031019  0.95647884
   0.88976306  0.77691311  0.04300737
unknown system                          
           1
     8.319545    4.828849    0.000000
    -8.303655    4.801289    0.000000
     0.000000    0.000000   30.000000
   V    Mo   W    S 
   3   3   3  18
Direct configuration=    16
   0.63046377 -0.01862471  0.00144795
   0.03159547  0.01649311 -0.00088335
   0.03809152  0.68546909 -0.00148452
   0.33813352  0.33795485 -0.00032504
   0.33325692  0.64875172 -0.00007452
   0.33766481  0.01885258 -0.00023238
   1.03650339  0.35039824 -0.00110938
   0.62920053  0.31788872  0.00146656
   0.63108666  0.64616004  0.00113206
   0.10993257  0.21735102  0.94560043
   0.22022550  0.11124699  0.05384160
   0.11401049  0.55977337  0.94522576
   0.22742179  0.44475833  0.05621845
   0.10955925  0.88956714  0.94721640
   0.22661058  0.78015781  0.05087352
   0.43950958  0.22194752  0.94355453
   0.55411413  0.10789716  0.05481927
   0.43969974  0.55159255  0.94328575
   0.55221638  0.44277167  0.05705172
   0.44171360  0.88724211  0.94870138
   0.55480079  0.77982777  0.05449345
   0.77731732  0.22011689  0.95685056
   0.88715775  0.10848295  0.04407151
   0.78116635  0.55669157  0.95496211
   0.88901105  0.44764721  0.04362832
   0.77750664  0.89061267  0.95685834
   0.89024433  0.77718610  0.04280944
unknown system                          
           1
     8.320139    4.826924    0.000000
    -8.305647    4.801788    0.000000
     0.000000    0.000000   30.000000
   V    Mo   W    S 
   3   3   3  18
Direct configuration=    17
   0.62895297 -0.01881828  0.00191793
   0.03252500  0.01648167 -0.00123772
   0.03898579  0.68640894 -0.00189174
   0.33800853  0.33745057 -0.00027953
   0.33333006  0.64717653 -0.00010206
   0.33725181  0.02070656 -0.00016692
   1.03626662  0.34962780 -0.00124844
   0.62936649  0.31799353  0.00162466
   0.63100506  0.64617931  0.00131388
   0.11007539  0.21749111  0.94536927
   0.21966512  0.11142254  0.05398947
   0.11431783  0.55936571  0.94511303
   0.22676246  0.44392040  0.05616858
   0.11046236  0.89041561  0.94678463
   0.22717194  0.78046442  0.05037693
   0.44038481  0.22284838  0.94352907
   0.55340303  0.10822715  0.05511185
   0.44017211  0.55117716  0.94332646
   0.55239753  0.44280356  0.05714593
   0.44082616  0.88698413  0.94919710
   0.55397732  0.77896040  0.05472680
   0.77652905  0.21928404  0.95705524
   0.88681069  0.10786234  0.04371757
   0.78141095  0.55691046  0.95519987
   0.88974990  0.44828127  0.04334037
   0.77746042  0.89101942  0.95740446
   0.89094507  0.77756971  0.04251322
unknown system                          
           1
     8.320513    4.823929    0.000000
    -8.308383    4.802879    0.000000
     0.000000    0.000000   30.000000
   V    Mo   W    S 
   3   3   3  18
Direct configuration=    18
   0.62861029 -0.01883512  0.00211825
   0.03254059  0.01648804 -0.00133626
   0.03915553  0.68666477 -0.00208278
   0.33808548  0.33749673 -0.00026691
   0.33332968  0.64690931 -0.00010301
   0.33726770  0.02083335 -0.00015117
   1.03609263  0.34923670 -0.00129832
   0.62952699  0.31818597  0.00166598
   0.63114008  0.64619277  0.00136710
   0.11025211  0.21757029  0.94529767
   0.21934851  0.11145906  0.05399407
   0.11438157  0.55908499  0.94506163
   0.22648700  0.44355163  0.05616187
   0.11083743  0.89081647  0.94664389
   0.22733865  0.78058323  0.05026895
   0.44069083  0.22313868  0.94354777
   0.55311164  0.10842771  0.05520905
   0.44041240  0.55110999  0.94334346
   0.55243492  0.44283586  0.05717917
   0.44058006  0.88691929  0.94933939
   0.55363718  0.77859832  0.05481055
   0.77622179  0.21895385  0.95712267
   0.88663238  0.10762444  0.04364729
   0.78151096  0.55701302  0.95523019
   0.89001441  0.44850878  0.04323899
   0.77732457  0.89114841  0.95754636
   0.89124908  0.77769792  0.04244404
unknown system                          
           1
     8.321419    4.825743    0.000000
    -8.308509    4.803343    0.000000
     0.000000    0.000000   30.000000
   V    Mo   W    S 
   3   3   3  18
Direct configuration=    19
   0.62802459 -0.01889003  0.00242676
   0.03256542  0.01649346 -0.00148181
   0.03957226  0.68709621 -0.00235059
   0.33817088  0.33754087 -0.00025004
   0.33323286  0.64646006 -0.00009323
   0.33727836  0.02109848 -0.00011999
   1.03595678  0.34877653 -0.00136655
   0.62969728  0.31840119  0.00173242
   0.63128189  0.64623710  0.00145672
   0.11056216  0.21772430  0.94517130
   0.21889487  0.11143509  0.05396535
   0.11447604  0.55862022  0.94496202
   0.22603706  0.44303399  0.05613543
   0.11138423  0.89141643  0.94641862
   0.22738676  0.78061850  0.05008039
   0.44116297  0.22351595  0.94359038
   0.55270201  0.10879130  0.05538841
   0.44081143  0.55110001  0.94337037
   0.55249771  0.44290139  0.05725463
   0.44033350  0.88682924  0.94954398
   0.55313726  0.77800851  0.05496039
   0.77574991  0.21844934  0.95721398
   0.88634491  0.10728018  0.04358119
   0.78169536  0.55719909  0.95524313
   0.89047596  0.44889542  0.04308972
   0.77704183  0.89131704  0.95772736
   0.89174016  0.77786459  0.04234957
unknown system                          
           1
     8.321419    4.825743    0.000000
    -8.308509    4.803343    0.000000
     0.000000    0.000000   30.000000
   V    Mo   W    S 
   3   3   3  18
Direct configuration=    20
   0.62800148 -0.01890132  0.00249026
   0.03249823  0.01649720 -0.00150062
   0.03966852  0.68716665 -0.00242281
   0.33822193  0.33759394 -0.00025501
   0.33317043  0.64651052 -0.00009417
   0.33723277  0.02095183 -0.00012867
   1.03589187  0.34868733 -0.00138802
   0.62977641  0.31849760  0.00174848
   0.63133899  0.64624807  0.00146980
   0.11066628  0.21774805  0.94516247
   0.21879330  0.11137811  0.05392124
   0.11446152  0.55853255  0.94493727
   0.22598729  0.44297821  0.05613966
   0.11142152  0.89148660  0.94640541
   0.22724231  0.78052245  0.05008526
   0.44121037  0.22351615  0.94361237
   0.55268916  0.10891659  0.05543029
   0.44091105  0.55119592  0.94338913
   0.55249968  0.44293381  0.05726593
   0.44043321  0.88682532  0.94954812
   0.55307581  0.77789842  0.05499510
   0.77566747  0.21836814  0.95722214
   0.88629464  0.10724324  0.04361466
   0.78174161  0.55725159  0.95521756
   0.89055800  0.44898868  0.04306984
   0.77691497  0.89132149  0.95771817
   0.89184563  0.77785734  0.04234603
