   27   27  100    1
  0.9710400E+02  0.1002848E-08  0.1002848E-08  0.3000000E-08  0.5000000E-15
  1.000000000000000E-004
  CAR 
 unknown system                          
    159     34    120
 
  0.0000000E+00  0.0000000E+00  0.0000000E+00  0.1562500E-01
    1      -17.795523   1.000000
    2      -16.695180   1.000000
    3      -16.589502   1.000000
    4      -16.563682   1.000000
    5      -16.486946   1.000000
    6      -16.458719   1.000000
    7      -16.395269   1.000000
    8      -16.285333   1.000000
    9      -16.188261   1.000000
   10      -16.069719   1.000000
   11      -16.043312   1.000000
   12      -16.015154   1.000000
   13      -15.864541   1.000000
   14      -15.706474   1.000000
   15      -15.605411   1.000000
   16      -15.574887   1.000000
   17      -15.412942   1.000000
   18      -15.390889   1.000000
   19       -9.205308   1.000000
   20       -8.948502   1.000000
   21       -8.853318   1.000000
   22       -8.827432   1.000000
   23       -8.737565   1.000000
   24       -8.697387   1.000000
   25       -8.628675   1.000000
   26       -8.589673   1.000000
   27       -8.513895   1.000000
   28       -8.361872   1.000000
   29       -8.327340   1.000000
   30       -8.310354   1.000000
   31       -8.263009   1.000000
   32       -8.219644   1.000000
   33       -8.176935   1.000000
   34       -8.067865   1.000000
   35       -7.928594   1.000000
   36       -7.796928   1.000000
   37       -7.725147   1.000000
   38       -7.561240   1.000000
   39       -7.449265   1.000000
   40       -7.382982   1.000000
   41       -7.304159   1.000000
   42       -7.265151   1.000000
   43       -7.227566   1.000000
   44       -6.968302   1.000000
   45       -6.844640   1.000000
   46       -6.795157   1.000000
   47       -6.717336   1.000000
   48       -6.621737   1.000000
   49       -6.539907   1.000000
   50       -6.510015   1.000000
   51       -6.466378   1.000000
   52       -6.385888   1.000000
   53       -6.310717   1.000000
   54       -6.264981   1.000000
   55       -6.213684   1.000000
   56       -6.097541   1.000000
   57       -5.937683   1.000000
   58       -5.923345   1.000000
   59       -5.712221   1.000000
   60       -5.672256   1.000000
   61       -5.484611   1.000000
   62       -5.442958   1.000000
   63       -5.281619   1.000000
   64       -5.098316   1.000000
   65       -5.040953   1.000000
   66       -4.974407   1.000000
   67       -4.939896   1.000000
   68       -4.829333   1.000000
   69       -4.798176   1.000000
   70       -4.689628   1.000000
   71       -4.604891   1.000000
   72       -4.568848   1.000000
   73       -4.507780   1.000000
   74       -4.229060   1.000000
   75       -4.216959   1.000000
   76       -3.976955   1.000000
   77       -3.690897   0.998853
   78       -3.600005   0.991946
   79       -3.521238   0.967806
   80       -3.347308   0.732246
   81       -3.298347   0.607731
   82       -2.858370   0.002272
   83       -2.775135   0.000306
   84       -2.614743   0.000003
   85       -2.473559   0.000000
   86       -2.424397   0.000000
   87       -2.303650   0.000000
   88       -2.226321   0.000000
   89       -2.110877   0.000000
   90       -1.942716   0.000000
   91       -1.878330   0.000000
   92       -1.741341   0.000000
   93       -1.476490   0.000000
   94       -1.336926   0.000000
   95       -1.182255   0.000000
   96       -1.082236   0.000000
   97       -1.007345   0.000000
   98       -0.907414   0.000000
   99       -0.749835   0.000000
  100       -0.679746   0.000000
  101       -0.590566   0.000000
  102       -0.484054   0.000000
  103       -0.374964   0.000000
  104       -0.304314   0.000000
  105       -0.278690   0.000000
  106       -0.050247   0.000000
  107        0.020633   0.000000
  108        0.034248   0.000000
  109        0.156248   0.000000
  110        0.198050   0.000000
  111        0.292114   0.000000
  112        0.467083   0.000000
  113        0.482535   0.000000
  114        0.759584   0.000000
  115        1.066916   0.000000
  116        1.152590   0.000000
  117        1.282504   0.000000
  118        1.644884   0.000000
  119        1.833532   0.000000
  120        2.153161   0.000000
 
  0.1250000E+00  0.2775558E-16  0.0000000E+00  0.3125000E-01
    1      -17.769876   1.000000
    2      -16.741534   1.000000
    3      -16.693113   1.000000
    4      -16.610150   1.000000
    5      -16.494970   1.000000
    6      -16.405505   1.000000
    7      -16.354927   1.000000
    8      -16.236417   1.000000
    9      -16.186131   1.000000
   10      -16.098264   1.000000
   11      -16.008487   1.000000
   12      -15.958284   1.000000
   13      -15.854254   1.000000
   14      -15.721490   1.000000
   15      -15.593099   1.000000
   16      -15.576892   1.000000
   17      -15.427930   1.000000
   18      -15.398217   1.000000
   19       -9.186786   1.000000
   20       -9.143466   1.000000
   21       -8.957080   1.000000
   22       -8.907956   1.000000
   23       -8.757126   1.000000
   24       -8.724111   1.000000
   25       -8.648939   1.000000
   26       -8.571465   1.000000
   27       -8.494595   1.000000
   28       -8.389456   1.000000
   29       -8.318130   1.000000
   30       -8.284469   1.000000
   31       -8.213962   1.000000
   32       -8.104189   1.000000
   33       -8.060785   1.000000
   34       -7.958626   1.000000
   35       -7.811866   1.000000
   36       -7.761891   1.000000
   37       -7.688983   1.000000
   38       -7.555209   1.000000
   39       -7.493027   1.000000
   40       -7.388201   1.000000
   41       -7.300046   1.000000
   42       -7.257501   1.000000
   43       -7.182620   1.000000
   44       -7.024102   1.000000
   45       -6.874530   1.000000
   46       -6.824068   1.000000
   47       -6.753461   1.000000
   48       -6.632906   1.000000
   49       -6.558613   1.000000
   50       -6.512524   1.000000
   51       -6.416678   1.000000
   52       -6.345058   1.000000
   53       -6.324190   1.000000
   54       -6.247896   1.000000
   55       -6.220093   1.000000
   56       -6.125665   1.000000
   57       -5.939609   1.000000
   58       -5.878094   1.000000
   59       -5.709245   1.000000
   60       -5.652870   1.000000
   61       -5.548954   1.000000
   62       -5.429909   1.000000
   63       -5.304716   1.000000
   64       -5.168702   1.000000
   65       -5.101219   1.000000
   66       -5.001274   1.000000
   67       -4.953163   1.000000
   68       -4.915822   1.000000
   69       -4.759005   1.000000
   70       -4.734205   1.000000
   71       -4.616324   1.000000
   72       -4.548194   1.000000
   73       -4.324687   1.000000
   74       -4.247659   1.000000
   75       -4.125806   1.000000
   76       -3.912633   0.999998
   77       -3.791779   0.999916
   78       -3.743505   0.999688
   79       -3.512301   0.962974
   80       -3.406701   0.850735
   81       -3.147411   0.213637
   82       -2.828514   0.001149
   83       -2.773191   0.000291
   84       -2.630849   0.000004
   85       -2.481788   0.000000
   86       -2.393328   0.000000
   87       -2.297677   0.000000
   88       -2.237206   0.000000
   89       -2.074917   0.000000
   90       -1.941263   0.000000
   91       -1.907528   0.000000
   92       -1.713629   0.000000
   93       -1.466057   0.000000
   94       -1.333875   0.000000
   95       -1.175542   0.000000
   96       -1.072128   0.000000
   97       -1.005368   0.000000
   98       -0.902328   0.000000
   99       -0.766246   0.000000
  100       -0.706094   0.000000
  101       -0.664170   0.000000
  102       -0.574979   0.000000
  103       -0.496234   0.000000
  104       -0.318577   0.000000
  105       -0.264799   0.000000
  106       -0.133326   0.000000
  107       -0.060719   0.000000
  108        0.067606   0.000000
  109        0.133067   0.000000
  110        0.221398   0.000000
  111        0.289273   0.000000
  112        0.508120   0.000000
  113        0.585882   0.000000
  114        0.800032   0.000000
  115        1.089756   0.000000
  116        1.138241   0.000000
  117        1.279901   0.000000
  118        1.689920   0.000000
  119        1.872406   0.000000
  120        2.188537   0.000000
 
  0.2500000E+00  0.5551115E-16  0.0000000E+00  0.3125000E-01
    1      -17.693977   1.000000
    2      -16.964935   1.000000
    3      -16.712575   1.000000
    4      -16.657636   1.000000
    5      -16.549282   1.000000
    6      -16.343147   1.000000
    7      -16.301253   1.000000
    8      -16.214828   1.000000
    9      -16.130502   1.000000
   10      -16.080850   1.000000
   11      -15.984259   1.000000
   12      -15.874340   1.000000
   13      -15.812910   1.000000
   14      -15.747790   1.000000
   15      -15.603684   1.000000
   16      -15.551024   1.000000
   17      -15.456379   1.000000
   18      -15.420378   1.000000
   19       -9.467296   1.000000
   20       -9.151778   1.000000
   21       -9.083974   1.000000
   22       -8.981487   1.000000
   23       -8.889966   1.000000
   24       -8.805619   1.000000
   25       -8.684718   1.000000
   26       -8.529635   1.000000
   27       -8.406599   1.000000
   28       -8.342618   1.000000
   29       -8.295401   1.000000
   30       -8.222432   1.000000
   31       -8.139799   1.000000
   32       -8.074475   1.000000
   33       -7.925077   1.000000
   34       -7.840342   1.000000
   35       -7.776922   1.000000
   36       -7.653035   1.000000
   37       -7.574596   1.000000
   38       -7.484099   1.000000
   39       -7.437018   1.000000
   40       -7.334505   1.000000
   41       -7.279126   1.000000
   42       -7.229697   1.000000
   43       -7.105021   1.000000
   44       -7.028754   1.000000
   45       -6.925494   1.000000
   46       -6.848137   1.000000
   47       -6.814621   1.000000
   48       -6.680852   1.000000
   49       -6.554158   1.000000
   50       -6.494666   1.000000
   51       -6.432450   1.000000
   52       -6.332574   1.000000
   53       -6.283001   1.000000
   54       -6.231301   1.000000
   55       -6.163097   1.000000
   56       -6.095813   1.000000
   57       -5.975045   1.000000
   58       -5.820419   1.000000
   59       -5.731321   1.000000
   60       -5.711547   1.000000
   61       -5.672932   1.000000
   62       -5.551191   1.000000
   63       -5.443485   1.000000
   64       -5.251422   1.000000
   65       -5.193789   1.000000
   66       -5.070657   1.000000
   67       -4.996538   1.000000
   68       -4.844619   1.000000
   69       -4.774118   1.000000
   70       -4.720873   1.000000
   71       -4.548888   1.000000
   72       -4.413124   1.000000
   73       -4.324591   1.000000
   74       -4.144732   1.000000
   75       -4.115406   1.000000
   76       -4.007787   1.000000
   77       -3.879740   0.999994
   78       -3.770239   0.999847
   79       -3.518421   0.966342
   80       -3.362671   0.766769
   81       -3.024316   0.048028
   82       -2.800914   0.000589
   83       -2.746589   0.000143
   84       -2.654728   0.000009
   85       -2.489696   0.000000
   86       -2.364035   0.000000
   87       -2.306105   0.000000
   88       -2.211464   0.000000
   89       -2.025114   0.000000
   90       -1.962442   0.000000
   91       -1.873851   0.000000
   92       -1.683126   0.000000
   93       -1.443618   0.000000
   94       -1.333801   0.000000
   95       -1.152066   0.000000
   96       -1.068923   0.000000
   97       -1.013388   0.000000
   98       -0.921552   0.000000
   99       -0.855720   0.000000
  100       -0.809473   0.000000
  101       -0.734346   0.000000
  102       -0.700148   0.000000
  103       -0.630494   0.000000
  104       -0.429152   0.000000
  105       -0.318897   0.000000
  106       -0.236606   0.000000
  107       -0.172738   0.000000
  108       -0.069477   0.000000
  109        0.123216   0.000000
  110        0.271058   0.000000
  111        0.336779   0.000000
  112        0.621429   0.000000
  113        0.740152   0.000000
  114        0.821771   0.000000
  115        1.009040   0.000000
  116        1.265564   0.000000
  117        1.321134   0.000000
  118        1.814273   0.000000
  119        1.983157   0.000000
  120        2.293462   0.000000
 
  0.3750000E+00  0.0000000E+00  0.0000000E+00  0.3125000E-01
    1      -17.571849   1.000000
    2      -17.188805   1.000000
    3      -16.740223   1.000000
    4      -16.682865   1.000000
    5      -16.570021   1.000000
    6      -16.358017   1.000000
    7      -16.263614   1.000000
    8      -16.170706   1.000000
    9      -16.084411   1.000000
   10      -16.038382   1.000000
   11      -15.957175   1.000000
   12      -15.834624   1.000000
   13      -15.820533   1.000000
   14      -15.703453   1.000000
   15      -15.623396   1.000000
   16      -15.573225   1.000000
   17      -15.456870   1.000000
   18      -15.430989   1.000000
   19       -9.691175   1.000000
   20       -9.236402   1.000000
   21       -9.151503   1.000000
   22       -8.993280   1.000000
   23       -8.933169   1.000000
   24       -8.865543   1.000000
   25       -8.628868   1.000000
   26       -8.490687   1.000000
   27       -8.372433   1.000000
   28       -8.305259   1.000000
   29       -8.273017   1.000000
   30       -8.241332   1.000000
   31       -8.114786   1.000000
   32       -8.028979   1.000000
   33       -7.930002   1.000000
   34       -7.884807   1.000000
   35       -7.731484   1.000000
   36       -7.613308   1.000000
   37       -7.516088   1.000000
   38       -7.470433   1.000000
   39       -7.338001   1.000000
   40       -7.255540   1.000000
   41       -7.208856   1.000000
   42       -7.136097   1.000000
   43       -7.071057   1.000000
   44       -6.949080   1.000000
   45       -6.907708   1.000000
   46       -6.780207   1.000000
   47       -6.726508   1.000000
   48       -6.632981   1.000000
   49       -6.561665   1.000000
   50       -6.484490   1.000000
   51       -6.425409   1.000000
   52       -6.311892   1.000000
   53       -6.260721   1.000000
   54       -6.217727   1.000000
   55       -6.155611   1.000000
   56       -6.048257   1.000000
   57       -5.978063   1.000000
   58       -5.951320   1.000000
   59       -5.863543   1.000000
   60       -5.827338   1.000000
   61       -5.719326   1.000000
   62       -5.676446   1.000000
   63       -5.630855   1.000000
   64       -5.327457   1.000000
   65       -5.153008   1.000000
   66       -5.090735   1.000000
   67       -4.973931   1.000000
   68       -4.855547   1.000000
   69       -4.755153   1.000000
   70       -4.705309   1.000000
   71       -4.597288   1.000000
   72       -4.464870   1.000000
   73       -4.335845   1.000000
   74       -4.213730   1.000000
   75       -4.051021   1.000000
   76       -3.961328   1.000000
   77       -3.815882   0.999958
   78       -3.721841   0.999458
   79       -3.553037   0.980976
   80       -3.280816   0.559400
   81       -2.962032   0.017659
   82       -2.795789   0.000519
   83       -2.728154   0.000085
   84       -2.656046   0.000010
   85       -2.483786   0.000000
   86       -2.400910   0.000000
   87       -2.288687   0.000000
   88       -2.171613   0.000000
   89       -2.035608   0.000000
   90       -1.914926   0.000000
   91       -1.794453   0.000000
   92       -1.673418   0.000000
   93       -1.430540   0.000000
   94       -1.335325   0.000000
   95       -1.148908   0.000000
   96       -1.098104   0.000000
   97       -1.068419   0.000000
   98       -1.037658   0.000000
   99       -0.919383   0.000000
  100       -0.854484   0.000000
  101       -0.786272   0.000000
  102       -0.728376   0.000000
  103       -0.691891   0.000000
  104       -0.520579   0.000000
  105       -0.443535   0.000000
  106       -0.335159   0.000000
  107       -0.233864   0.000000
  108       -0.170964   0.000000
  109        0.097832   0.000000
  110        0.279114   0.000000
  111        0.356094   0.000000
  112        0.742786   0.000000
  113        0.805510   0.000000
  114        0.849556   0.000000
  115        0.961024   0.000000
  116        1.306507   0.000000
  117        1.465803   0.000000
  118        1.999701   0.000000
  119        2.156277   0.000000
  120        2.464505   0.000000
 
  0.5000000E+00  0.1110223E-15  0.0000000E+00  0.1562500E-01
    1      -17.444285   1.000000
    2      -17.351892   1.000000
    3      -16.751897   1.000000
    4      -16.692668   1.000000
    5      -16.572004   1.000000
    6      -16.368551   1.000000
    7      -16.262868   1.000000
    8      -16.130525   1.000000
    9      -16.070804   1.000000
   10      -16.024664   1.000000
   11      -15.948662   1.000000
   12      -15.838264   1.000000
   13      -15.803261   1.000000
   14      -15.683844   1.000000
   15      -15.624383   1.000000
   16      -15.603081   1.000000
   17      -15.475116   1.000000
   18      -15.409506   1.000000
   19       -9.771248   1.000000
   20       -9.278762   1.000000
   21       -9.175531   1.000000
   22       -9.022487   1.000000
   23       -8.962769   1.000000
   24       -8.773099   1.000000
   25       -8.593811   1.000000
   26       -8.578303   1.000000
   27       -8.355090   1.000000
   28       -8.274701   1.000000
   29       -8.246225   1.000000
   30       -8.210401   1.000000
   31       -8.165452   1.000000
   32       -7.998221   1.000000
   33       -7.948187   1.000000
   34       -7.890239   1.000000
   35       -7.719990   1.000000
   36       -7.641817   1.000000
   37       -7.546452   1.000000
   38       -7.466758   1.000000
   39       -7.313720   1.000000
   40       -7.239770   1.000000
   41       -7.200691   1.000000
   42       -7.066833   1.000000
   43       -7.008361   1.000000
   44       -6.895473   1.000000
   45       -6.781680   1.000000
   46       -6.715926   1.000000
   47       -6.637545   1.000000
   48       -6.604261   1.000000
   49       -6.588618   1.000000
   50       -6.499763   1.000000
   51       -6.447898   1.000000
   52       -6.315716   1.000000
   53       -6.288101   1.000000
   54       -6.251655   1.000000
   55       -6.186843   1.000000
   56       -6.126108   1.000000
   57       -6.021343   1.000000
   58       -5.962033   1.000000
   59       -5.837926   1.000000
   60       -5.787048   1.000000
   61       -5.749079   1.000000
   62       -5.697695   1.000000
   63       -5.590711   1.000000
   64       -5.373476   1.000000
   65       -5.354814   1.000000
   66       -5.079715   1.000000
   67       -4.957802   1.000000
   68       -4.946739   1.000000
   69       -4.752330   1.000000
   70       -4.664870   1.000000
   71       -4.571829   1.000000
   72       -4.449087   1.000000
   73       -4.392331   1.000000
   74       -4.222551   1.000000
   75       -4.020649   1.000000
   76       -3.920277   0.999999
   77       -3.749792   0.999735
   78       -3.718304   0.999409
   79       -3.584650   0.989216
   80       -3.239731   0.443909
   81       -2.947094   0.013541
   82       -2.796096   0.000523
   83       -2.724788   0.000078
   84       -2.651012   0.000008
   85       -2.468431   0.000000
   86       -2.432298   0.000000
   87       -2.278030   0.000000
   88       -2.162407   0.000000
   89       -2.031155   0.000000
   90       -1.898842   0.000000
   91       -1.740345   0.000000
   92       -1.674052   0.000000
   93       -1.442382   0.000000
   94       -1.322627   0.000000
   95       -1.158674   0.000000
   96       -1.150132   0.000000
   97       -1.112321   0.000000
   98       -1.056590   0.000000
   99       -0.955124   0.000000
  100       -0.841427   0.000000
  101       -0.806737   0.000000
  102       -0.733115   0.000000
  103       -0.693131   0.000000
  104       -0.553755   0.000000
  105       -0.512665   0.000000
  106       -0.387251   0.000000
  107       -0.252772   0.000000
  108       -0.193630   0.000000
  109        0.085451   0.000000
  110        0.276796   0.000000
  111        0.353253   0.000000
  112        0.789580   0.000000
  113        0.809397   0.000000
  114        0.864666   0.000000
  115        0.964111   0.000000
  116        1.317571   0.000000
  117        1.526194   0.000000
  118        2.214433   0.000000
  119        2.259697   0.000000
  120        2.372712   0.000000
 
  0.0000000E+00  0.1250000E+00  0.0000000E+00  0.3125000E-01
    1      -17.769874   1.000000
    2      -16.733698   1.000000
    3      -16.688311   1.000000
    4      -16.605050   1.000000
    5      -16.534815   1.000000
    6      -16.411167   1.000000
    7      -16.319463   1.000000
    8      -16.239367   1.000000
    9      -16.198637   1.000000
   10      -16.062635   1.000000
   11      -16.017017   1.000000
   12      -15.992219   1.000000
   13      -15.839940   1.000000
   14      -15.719223   1.000000
   15      -15.594794   1.000000
   16      -15.576661   1.000000
   17      -15.434925   1.000000
   18      -15.391514   1.000000
   19       -9.186126   1.000000
   20       -9.129979   1.000000
   21       -8.976334   1.000000
   22       -8.927017   1.000000
   23       -8.795201   1.000000
   24       -8.705344   1.000000
   25       -8.598038   1.000000
   26       -8.540600   1.000000
   27       -8.470324   1.000000
   28       -8.438569   1.000000
   29       -8.317566   1.000000
   30       -8.274312   1.000000
   31       -8.220066   1.000000
   32       -8.124575   1.000000
   33       -8.050383   1.000000
   34       -7.972392   1.000000
   35       -7.808369   1.000000
   36       -7.752104   1.000000
   37       -7.658530   1.000000
   38       -7.600697   1.000000
   39       -7.536758   1.000000
   40       -7.372110   1.000000
   41       -7.283186   1.000000
   42       -7.232810   1.000000
   43       -7.178248   1.000000
   44       -7.030914   1.000000
   45       -6.902657   1.000000
   46       -6.859843   1.000000
   47       -6.700603   1.000000
   48       -6.583235   1.000000
   49       -6.559709   1.000000
   50       -6.521462   1.000000
   51       -6.438232   1.000000
   52       -6.403345   1.000000
   53       -6.276661   1.000000
   54       -6.255211   1.000000
   55       -6.223240   1.000000
   56       -6.120254   1.000000
   57       -5.952018   1.000000
   58       -5.881034   1.000000
   59       -5.691851   1.000000
   60       -5.644961   1.000000
   61       -5.539241   1.000000
   62       -5.406634   1.000000
   63       -5.308601   1.000000
   64       -5.169970   1.000000
   65       -5.136978   1.000000
   66       -5.020983   1.000000
   67       -4.937153   1.000000
   68       -4.893447   1.000000
   69       -4.770243   1.000000
   70       -4.721541   1.000000
   71       -4.657135   1.000000
   72       -4.558878   1.000000
   73       -4.365124   1.000000
   74       -4.198863   1.000000
   75       -4.090730   1.000000
   76       -3.896710   0.999997
   77       -3.811969   0.999953
   78       -3.747304   0.999718
   79       -3.539256   0.975973
   80       -3.360876   0.762867
   81       -3.137177   0.193180
   82       -2.856973   0.002203
   83       -2.786917   0.000414
   84       -2.618634   0.000003
   85       -2.507230   0.000000
   86       -2.357210   0.000000
   87       -2.310585   0.000000
   88       -2.216487   0.000000
   89       -2.083504   0.000000
   90       -1.942280   0.000000
   91       -1.900515   0.000000
   92       -1.723456   0.000000
   93       -1.466389   0.000000
   94       -1.339367   0.000000
   95       -1.203374   0.000000
   96       -1.069018   0.000000
   97       -0.971991   0.000000
   98       -0.895295   0.000000
   99       -0.780414   0.000000
  100       -0.713532   0.000000
  101       -0.621045   0.000000
  102       -0.587103   0.000000
  103       -0.455856   0.000000
  104       -0.328674   0.000000
  105       -0.302854   0.000000
  106       -0.183186   0.000000
  107       -0.072963   0.000000
  108        0.075540   0.000000
  109        0.157731   0.000000
  110        0.225926   0.000000
  111        0.272796   0.000000
  112        0.536312   0.000000
  113        0.578497   0.000000
  114        0.806358   0.000000
  115        1.080055   0.000000
  116        1.139372   0.000000
  117        1.289789   0.000000
  118        1.690192   0.000000
  119        1.872219   0.000000
  120        2.188589   0.000000
 
  0.1250000E+00  0.1250000E+00  0.0000000E+00  0.3125000E-01
    1      -17.718446   1.000000
    2      -16.864219   1.000000
    3      -16.776778   1.000000
    4      -16.650388   1.000000
    5      -16.464714   1.000000
    6      -16.416163   1.000000
    7      -16.300511   1.000000
    8      -16.216973   1.000000
    9      -16.142093   1.000000
   10      -16.053321   1.000000
   11      -16.024612   1.000000
   12      -15.928223   1.000000
   13      -15.802121   1.000000
   14      -15.729031   1.000000
   15      -15.594535   1.000000
   16      -15.552013   1.000000
   17      -15.459518   1.000000
   18      -15.413803   1.000000
   19       -9.360912   1.000000
   20       -9.194859   1.000000
   21       -9.103136   1.000000
   22       -8.963836   1.000000
   23       -8.842593   1.000000
   24       -8.767034   1.000000
   25       -8.620397   1.000000
   26       -8.503723   1.000000
   27       -8.426806   1.000000
   28       -8.352758   1.000000
   29       -8.318607   1.000000
   30       -8.237336   1.000000
   31       -8.205060   1.000000
   32       -8.125718   1.000000
   33       -7.964502   1.000000
   34       -7.829622   1.000000
   35       -7.767292   1.000000
   36       -7.743813   1.000000
   37       -7.587526   1.000000
   38       -7.478106   1.000000
   39       -7.382083   1.000000
   40       -7.344195   1.000000
   41       -7.300519   1.000000
   42       -7.222037   1.000000
   43       -7.175629   1.000000
   44       -7.049229   1.000000
   45       -6.963974   1.000000
   46       -6.874179   1.000000
   47       -6.728832   1.000000
   48       -6.639988   1.000000
   49       -6.606858   1.000000
   50       -6.493570   1.000000
   51       -6.468990   1.000000
   52       -6.365978   1.000000
   53       -6.263008   1.000000
   54       -6.207268   1.000000
   55       -6.161469   1.000000
   56       -6.127919   1.000000
   57       -5.956112   1.000000
   58       -5.831958   1.000000
   59       -5.705440   1.000000
   60       -5.653423   1.000000
   61       -5.615140   1.000000
   62       -5.465198   1.000000
   63       -5.360483   1.000000
   64       -5.305409   1.000000
   65       -5.174950   1.000000
   66       -5.086034   1.000000
   67       -5.022090   1.000000
   68       -4.898677   1.000000
   69       -4.780669   1.000000
   70       -4.695759   1.000000
   71       -4.592308   1.000000
   72       -4.496265   1.000000
   73       -4.223484   1.000000
   74       -4.164378   1.000000
   75       -4.105639   1.000000
   76       -3.999344   1.000000
   77       -3.864354   0.999990
   78       -3.753771   0.999762
   79       -3.508345   0.960654
   80       -3.367483   0.777052
   81       -3.033542   0.054906
   82       -2.815427   0.000841
   83       -2.795461   0.000514
   84       -2.649534   0.000008
   85       -2.507699   0.000000
   86       -2.353875   0.000000
   87       -2.299594   0.000000
   88       -2.206522   0.000000
   89       -2.038562   0.000000
   90       -1.971084   0.000000
   91       -1.903972   0.000000
   92       -1.696036   0.000000
   93       -1.444010   0.000000
   94       -1.340714   0.000000
   95       -1.171557   0.000000
   96       -1.069407   0.000000
   97       -0.956621   0.000000
   98       -0.890512   0.000000
   99       -0.826440   0.000000
  100       -0.785082   0.000000
  101       -0.709362   0.000000
  102       -0.675766   0.000000
  103       -0.565006   0.000000
  104       -0.405221   0.000000
  105       -0.336127   0.000000
  106       -0.248366   0.000000
  107       -0.140029   0.000000
  108       -0.022574   0.000000
  109        0.132225   0.000000
  110        0.215444   0.000000
  111        0.346817   0.000000
  112        0.576603   0.000000
  113        0.676517   0.000000
  114        0.820092   0.000000
  115        1.069298   0.000000
  116        1.211397   0.000000
  117        1.346310   0.000000
  118        1.778004   0.000000
  119        1.945958   0.000000
  120        2.259553   0.000000
 
  0.2500000E+00  0.1250000E+00  0.0000000E+00  0.3125000E-01
    1      -17.618622   1.000000
    2      -17.071693   1.000000
    3      -16.873128   1.000000
    4      -16.625079   1.000000
    5      -16.480031   1.000000
    6      -16.350298   1.000000
    7      -16.281112   1.000000
    8      -16.220300   1.000000
    9      -16.088968   1.000000
   10      -16.038177   1.000000
   11      -15.991730   1.000000
   12      -15.883840   1.000000
   13      -15.805192   1.000000
   14      -15.680040   1.000000
   15      -15.622605   1.000000
   16      -15.546197   1.000000
   17      -15.465923   1.000000
   18      -15.434011   1.000000
   19       -9.596340   1.000000
   20       -9.345806   1.000000
   21       -9.145706   1.000000
   22       -8.984491   1.000000
   23       -8.840722   1.000000
   24       -8.793802   1.000000
   25       -8.612156   1.000000
   26       -8.460571   1.000000
   27       -8.366470   1.000000
   28       -8.320895   1.000000
   29       -8.276991   1.000000
   30       -8.255203   1.000000
   31       -8.144556   1.000000
   32       -8.121849   1.000000
   33       -7.944897   1.000000
   34       -7.865870   1.000000
   35       -7.845287   1.000000
   36       -7.604610   1.000000
   37       -7.469413   1.000000
   38       -7.421057   1.000000
   39       -7.389402   1.000000
   40       -7.277573   1.000000
   41       -7.219022   1.000000
   42       -7.152858   1.000000
   43       -7.082647   1.000000
   44       -6.960024   1.000000
   45       -6.896516   1.000000
   46       -6.825480   1.000000
   47       -6.758964   1.000000