       N       E                     dE             d eps       ncg     rms          rms(c)
DAV:   1     0.112592475084E+04    0.11259E+04   -0.35981E+04  8160   0.577E+02
DAV:   2    -0.250346207642E+01   -0.11284E+04   -0.10875E+04 11320   0.173E+02
DAV:   3    -0.199887599610E+03   -0.19738E+03   -0.18965E+03 10920   0.821E+01
DAV:   4    -0.209004136091E+03   -0.91165E+01   -0.88430E+01 12280   0.260E+01
DAV:   5    -0.209309087075E+03   -0.30495E+00   -0.30405E+00 11480   0.342E+00    0.275E+01
DAV:   6    -0.236788635402E+03   -0.27480E+02   -0.11041E+02 12440   0.603E+01    0.595E+01
DAV:   7    -0.196510226623E+03    0.40278E+02   -0.17797E+02 13320   0.152E+02    0.200E+01
DAV:   8    -0.189483445692E+03    0.70268E+01   -0.17529E+01 11920   0.128E+01    0.127E+01
DAV:   9    -0.188171827316E+03    0.13116E+01   -0.31145E+00 12640   0.630E+00    0.917E+00
DAV:  10    -0.187030443946E+03    0.11414E+01   -0.21180E+00 13520   0.741E+00    0.302E+00
DAV:  11    -0.186943356488E+03    0.87087E-01   -0.59913E-01 12280   0.231E+00    0.234E+00
DAV:  12    -0.187051959975E+03   -0.10860E+00   -0.71180E-01 12360   0.425E+00    0.437E+00
DAV:  13    -0.186878240038E+03    0.17372E+00   -0.40854E-01 12880   0.379E+00    0.204E+00
DAV:  14    -0.186842960798E+03    0.35279E-01   -0.10245E-01 12840   0.173E+00    0.117E+00
DAV:  15    -0.186838887685E+03    0.40731E-02   -0.55478E-02 12320   0.142E+00    0.110E+00
DAV:  16    -0.186828724831E+03    0.10163E-01   -0.18098E-02 12920   0.693E-01    0.471E-01
DAV:  17    -0.186826637668E+03    0.20872E-02   -0.90303E-03 12720   0.465E-01    0.250E-01
DAV:  18    -0.186826261204E+03    0.37646E-03   -0.23169E-03 11840   0.138E-01    0.190E-01
DAV:  19    -0.186825850343E+03    0.41086E-03   -0.97905E-04 10120   0.138E-01    0.484E-02
DAV:  20    -0.186826544292E+03   -0.69395E-03   -0.69727E-04  9200   0.568E-02    0.492E-02
DAV:  21    -0.186827144558E+03   -0.60027E-03   -0.30864E-04  8120   0.503E-02    0.439E-02
DAV:  22    -0.186828294563E+03   -0.11500E-02   -0.21963E-04  7560   0.622E-02    0.389E-02
DAV:  23    -0.186829564205E+03   -0.12696E-02   -0.15251E-04  7440   0.433E-02    0.103E-02
DAV:  24    -0.186830156700E+03   -0.59249E-03   -0.31735E-05  6720   0.145E-02    0.901E-03
DAV:  25    -0.186830545941E+03   -0.38924E-03   -0.18541E-05  5520   0.143E-02    0.569E-03
DAV:  26    -0.186830758753E+03   -0.21281E-03   -0.83753E-06  6840   0.758E-03    0.180E-03
DAV:  27    -0.186830863928E+03   -0.10518E-03   -0.39578E-06  6920   0.454E-03    0.119E-03
DAV:  28    -0.186830909220E+03   -0.45291E-04   -0.21446E-06  7320   0.352E-03
   1 F= -.18683091E+03 E0= -.18665828E+03  d E =-.186831E+03
       N       E                     dE             d eps       ncg     rms          rms(c)
DAV:   1    -0.187465472249E+03   -0.63461E+00   -0.27339E+02  8160   0.351E+01    0.464E+00
DAV:   2    -0.189366408848E+03   -0.19009E+01   -0.20299E+01 12240   0.153E+01    0.871E+00
DAV:   3    -0.189351932234E+03    0.14477E-01   -0.41095E+00 12480   0.121E+01    0.672E+00
DAV:   4    -0.188735677540E+03    0.61625E+00   -0.62650E-01 12680   0.470E+00    0.176E+00
DAV:   5    -0.188760856322E+03   -0.25179E-01   -0.32657E-01 12200   0.237E+00    0.330E+00
DAV:   6    -0.188747770605E+03    0.13086E-01   -0.52370E-01 12760   0.406E+00    0.306E+00
DAV:   7    -0.188665862714E+03    0.81908E-01   -0.18309E-01 12880   0.226E+00    0.106E+00
DAV:   8    -0.188649510132E+03    0.16353E-01   -0.53350E-02 10880   0.788E-01    0.591E-01
DAV:   9    -0.188645713776E+03    0.37964E-02   -0.99489E-03 12200   0.415E-01    0.373E-01
DAV:  10    -0.188645771347E+03   -0.57571E-04   -0.48127E-03 12600   0.393E-01    0.365E-01
DAV:  11    -0.188644657115E+03    0.11142E-02   -0.30224E-03 12920   0.270E-01    0.111E-01
DAV:  12    -0.188644772298E+03   -0.11518E-03   -0.77944E-04 12080   0.870E-02    0.796E-02
DAV:  13    -0.188644709556E+03    0.62742E-04   -0.23540E-04  7920   0.517E-02
   2 F= -.18864471E+03 E0= -.18850235E+03  d E =-.181380E+01
       N       E                     dE             d eps       ncg     rms          rms(c)
DAV:   1    -0.190569103485E+03   -0.19243E+01   -0.31309E+01  9240   0.142E+01    0.446E+00
DAV:   2    -0.190555953718E+03    0.13150E-01   -0.28561E+00 11480   0.970E+00    0.745E+00
DAV:   3    -0.190041552906E+03    0.51440E+00   -0.13601E+00 12360   0.866E+00    0.414E+00
DAV:   4    -0.189835443027E+03    0.20611E+00   -0.71148E-01 12800   0.408E+00    0.247E+00
DAV:   5    -0.189747884703E+03    0.87558E-01   -0.29236E-01 11640   0.188E+00    0.844E-01
DAV:   6    -0.189732981511E+03    0.14903E-01   -0.40640E-02 10600   0.749E-01    0.350E-01
DAV:   7    -0.189733889638E+03   -0.90813E-03   -0.94273E-03 12400   0.528E-01    0.400E-01
DAV:   8    -0.189732783705E+03    0.11059E-02   -0.28621E-03 11920   0.320E-01    0.149E-01
DAV:   9    -0.189732893450E+03   -0.10974E-03   -0.97769E-04 10480   0.120E-01    0.131E-01
DAV:  10    -0.189733133700E+03   -0.24025E-03   -0.96199E-04 10440   0.192E-01    0.197E-01
DAV:  11    -0.189732814816E+03    0.31888E-03   -0.59479E-04  9760   0.166E-01    0.419E-02
DAV:  12    -0.189732817948E+03   -0.31313E-05   -0.68602E-05  6080   0.388E-02
   3 F= -.18973282E+03 E0= -.18961230E+03  d E =-.108811E+01
       N       E                     dE             d eps       ncg     rms          rms(c)
DAV:   1    -0.191287483782E+03   -0.15547E+01   -0.74871E+01  8160   0.197E+01    0.462E+00
DAV:   2    -0.191189318963E+03    0.98165E-01   -0.54893E+00 13120   0.843E+00    0.529E+00
DAV:   3    -0.191197738160E+03   -0.84192E-02   -0.16362E+00 12160   0.921E+00    0.632E+00
DAV:   4    -0.190870720838E+03    0.32702E+00   -0.13742E+00 12680   0.731E+00    0.332E+00
DAV:   5    -0.190857604307E+03    0.13117E-01   -0.58877E-01 11760   0.503E+00    0.339E+00
DAV:   6    -0.190712214721E+03    0.14539E+00   -0.21816E-01 12080   0.328E+00    0.882E-01
DAV:   7    -0.190704640122E+03    0.75746E-02   -0.41277E-02 12520   0.930E-01    0.472E-01
DAV:   8    -0.190704102303E+03    0.53782E-03   -0.11820E-02 11240   0.674E-01    0.556E-01
DAV:   9    -0.190701352972E+03    0.27493E-02   -0.46953E-03 11320   0.498E-01    0.149E-01
DAV:  10    -0.190701609357E+03   -0.25638E-03   -0.11208E-03 10160   0.136E-01    0.119E-01
DAV:  11    -0.190701491627E+03    0.11773E-03   -0.84406E-04 10480   0.103E-01    0.508E-02
DAV:  12    -0.190701473208E+03    0.18418E-04   -0.15593E-04  7680   0.457E-02
   4 F= -.19070147E+03 E0= -.19059698E+03  d E =-.968655E+00
       N       E                     dE             d eps       ncg     rms          rms(c)
DAV:   1    -0.192015568151E+03   -0.13141E+01   -0.15164E+02  8160   0.275E+01    0.559E+00
DAV:   2    -0.191869655240E+03    0.14591E+00   -0.92194E+00 12320   0.918E+00    0.495E+00
DAV:   3    -0.192186883238E+03   -0.31723E+00   -0.23830E+00 11240   0.108E+01    0.926E+00
DAV:   4    -0.191578169774E+03    0.60871E+00   -0.27948E+00 12080   0.112E+01    0.402E+00
DAV:   5    -0.191515815164E+03    0.62355E-01   -0.80648E-01 12280   0.590E+00    0.371E+00
DAV:   6    -0.191332440644E+03    0.18337E+00   -0.29180E-01 12240   0.394E+00    0.937E-01
DAV:   7    -0.191325936175E+03    0.65045E-02   -0.54399E-02 12240   0.112E+00    0.558E-01
DAV:   8    -0.191323803261E+03    0.21329E-02   -0.17489E-02 11880   0.779E-01    0.580E-01
DAV:   9    -0.191320774011E+03    0.30292E-02   -0.59204E-03 11840   0.549E-01    0.181E-01
DAV:  10    -0.191321173344E+03   -0.39933E-03   -0.19958E-03 10920   0.175E-01    0.124E-01
DAV:  11    -0.191320942935E+03    0.23041E-03   -0.78777E-04 11280   0.106E-01    0.474E-02
DAV:  12    -0.191320944036E+03   -0.11006E-05   -0.11681E-04  6520   0.399E-02
   5 F= -.19132094E+03 E0= -.19122028E+03  d E =-.619471E+00
       N       E                     dE             d eps       ncg     rms          rms(c)
DAV:   1    -0.191360585297E+03   -0.39642E-01   -0.33007E+00  8160   0.382E+00    0.494E-01
DAV:   2    -0.191399091072E+03   -0.38506E-01   -0.18918E-01 12680   0.227E+00    0.175E+00
DAV:   3    -0.191371065426E+03    0.28026E-01   -0.64322E-02 12040   0.174E+00    0.426E-01
DAV:   4    -0.191371036186E+03    0.29241E-04   -0.86937E-03 11120   0.645E-01    0.439E-01
DAV:   5    -0.191369106910E+03    0.19293E-02   -0.47329E-03 10280   0.495E-01    0.189E-01
DAV:   6    -0.191368958694E+03    0.14822E-03   -0.15014E-03 10200   0.205E-01    0.146E-01
DAV:   7    -0.191369312766E+03   -0.35407E-03   -0.19395E-03 10280   0.311E-01    0.242E-01
DAV:   8    -0.191368711717E+03    0.60105E-03   -0.99804E-04  8800   0.220E-01    0.351E-02
DAV:   9    -0.191368719890E+03   -0.81738E-05   -0.86110E-05  5680   0.377E-02
   6 F= -.19136872E+03 E0= -.19126632E+03  d E =-.477759E-01
       N       E                     dE             d eps       ncg     rms          rms(c)
DAV:   1    -0.191418019159E+03   -0.49307E-01   -0.59419E+00  8160   0.513E+00    0.590E-01
DAV:   2    -0.191453827063E+03   -0.35808E-01   -0.19907E-01 12840   0.193E+00    0.175E+00
DAV:   3    -0.191428466059E+03    0.25361E-01   -0.80430E-02 12160   0.191E+00    0.639E-01
DAV:   4    -0.191426000813E+03    0.24652E-02   -0.12732E-02 11160   0.690E-01    0.455E-01
DAV:   5    -0.191424390447E+03    0.16104E-02   -0.72073E-03 10680   0.613E-01    0.306E-01
DAV:   6    -0.191423736031E+03    0.65442E-03   -0.34101E-03 10360   0.358E-01    0.207E-01
DAV:   7    -0.191424106101E+03   -0.37007E-03   -0.31250E-03 11680   0.392E-01    0.282E-01
DAV:   8    -0.191423308686E+03    0.79741E-03   -0.15483E-03  9640   0.272E-01    0.539E-02
DAV:   9    -0.191423287925E+03    0.20761E-04   -0.12436E-04  5600   0.505E-02
   7 F= -.19142329E+03 E0= -.19131947E+03  d E =-.545680E-01
       N       E                     dE             d eps       ncg     rms          rms(c)
DAV:   1    -0.191440431316E+03   -0.17123E-01   -0.52385E-01  8160   0.154E+00    0.214E-01
DAV:   2    -0.191443852691E+03   -0.34214E-02   -0.21461E-02 12120   0.705E-01    0.567E-01
DAV:   3    -0.191440969114E+03    0.28836E-02   -0.76917E-03 11520   0.614E-01    0.195E-01
DAV:   4    -0.191441038061E+03   -0.68947E-04   -0.18583E-03  9960   0.300E-01    0.219E-01
DAV:   5    -0.191440594415E+03    0.44365E-03   -0.13718E-03  9880   0.269E-01    0.111E-01
DAV:   6    -0.191440507840E+03    0.86575E-04   -0.50287E-04  8480   0.126E-01
   8 F= -.19144051E+03 E0= -.19133641E+03  d E =-.172199E-01
       N       E                     dE             d eps       ncg     rms          rms(c)
DAV:   1    -0.191463060604E+03   -0.22466E-01   -0.10407E+00  8160   0.216E+00    0.283E-01
DAV:   2    -0.191475406290E+03   -0.12346E-01   -0.50531E-02 13440   0.122E+00    0.107E+00
DAV:   3    -0.191464862156E+03    0.10544E-01   -0.23394E-02 10760   0.100E+00    0.237E-01
DAV:   4    -0.191465071813E+03   -0.20966E-03   -0.29963E-03 10720   0.380E-01    0.266E-01
DAV:   5    -0.191464320814E+03    0.75100E-03   -0.15445E-03 10440   0.280E-01    0.873E-02
DAV:   6    -0.191464318885E+03    0.19284E-05   -0.40736E-04  7920   0.963E-02
   9 F= -.19146432E+03 E0= -.19135988E+03  d E =-.238110E-01
       N       E                     dE             d eps       ncg     rms          rms(c)
DAV:   1    -0.191501898095E+03   -0.37577E-01   -0.23955E+00  8160   0.326E+00    0.396E-01
DAV:   2    -0.191525487596E+03   -0.23590E-01   -0.89558E-02 13520   0.155E+00    0.147E+00
DAV:   3    -0.191504769927E+03    0.20718E-01   -0.38580E-02 12080   0.142E+00    0.266E-01
DAV:   4    -0.191504552721E+03    0.21721E-03   -0.28699E-03 11520   0.291E-01    0.233E-01
DAV:   5    -0.191504313862E+03    0.23886E-03   -0.25307E-03 11600   0.346E-01    0.218E-01
DAV:   6    -0.191504132411E+03    0.18145E-03   -0.17313E-03  9600   0.259E-01    0.145E-01
DAV:   7    -0.191504105080E+03    0.27331E-04   -0.10968E-03  9680   0.228E-01    0.138E-01
DAV:   8    -0.191503874998E+03    0.23008E-03   -0.37109E-04  7720   0.134E-01    0.199E-02
DAV:   9    -0.191503883004E+03   -0.80062E-05   -0.40345E-05  6160   0.248E-02
  10 F= -.19150388E+03 E0= -.19139992E+03  d E =-.395641E-01
       N       E                     dE             d eps       ncg     rms          rms(c)
DAV:   1    -0.191472515163E+03    0.31360E-01   -0.15257E+00  8160   0.263E+00    0.344E-01
DAV:   2    -0.191481763678E+03   -0.92485E-02   -0.53924E-02 13360   0.114E+00    0.922E-01
DAV:   3    -0.191473864421E+03    0.78993E-02   -0.19181E-02 12160   0.100E+00    0.312E-01
DAV:   4    -0.191473707921E+03    0.15650E-03   -0.41216E-03 10280   0.443E-01    0.306E-01
DAV:   5    -0.191472896660E+03    0.81126E-03   -0.31601E-03 10360   0.409E-01    0.183E-01
DAV:   6    -0.191472645276E+03    0.25138E-03   -0.13088E-03 10360   0.211E-01    0.113E-01
DAV:   7    -0.191472688136E+03   -0.42860E-04   -0.91899E-04  8800   0.200E-01
  11 F= -.19147269E+03 E0= -.19136841E+03  d E =0.311949E-01
       N       E                     dE             d eps       ncg     rms          rms(c)
DAV:   1    -0.191545604680E+03   -0.72959E-01   -0.88580E+00  8160   0.631E+00    0.737E-01
DAV:   2    -0.191599048105E+03   -0.53443E-01   -0.29759E-01 13080   0.258E+00    0.221E+00
DAV:   3    -0.191557878103E+03    0.41170E-01   -0.10876E-01 12240   0.230E+00    0.663E-01
DAV:   4    -0.191557103882E+03    0.77422E-03   -0.19310E-02 12240   0.922E-01    0.682E-01
DAV:   5    -0.191553066806E+03    0.40371E-02   -0.14232E-02 11640   0.857E-01    0.403E-01
DAV:   6    -0.191552559091E+03    0.50771E-03   -0.77279E-03 11400   0.523E-01    0.344E-01
DAV:   7    -0.191552175906E+03    0.38319E-03   -0.58614E-03 11800   0.525E-01    0.281E-01
DAV:   8    -0.191551211729E+03    0.96418E-03   -0.16840E-03  9680   0.259E-01    0.499E-02
DAV:   9    -0.191551186945E+03    0.24784E-04   -0.17176E-04  6840   0.492E-02
  12 F= -.19155119E+03 E0= -.19144814E+03  d E =-.784988E-01
       N       E                     dE             d eps       ncg     rms          rms(c)
DAV:   1    -0.191564166013E+03   -0.12954E-01   -0.22757E-01  8160   0.101E+00    0.114E-01
DAV:   2    -0.191565318135E+03   -0.11521E-02   -0.77370E-03 12640   0.382E-01    0.289E-01
DAV:   3    -0.191564596831E+03    0.72130E-03   -0.22410E-03 10760   0.330E-01    0.119E-01
DAV:   4    -0.191564562709E+03    0.34121E-04   -0.46974E-04  8160   0.146E-01
  13 F= -.19156456E+03 E0= -.19146200E+03  d E =-.133758E-01
       N       E                     dE             d eps       ncg     rms          rms(c)
DAV:   1    -0.191421784656E+03    0.14281E+00   -0.20894E+01  8160   0.972E+00    0.107E+00
DAV:   2    -0.191503809876E+03   -0.82025E-01   -0.65486E-01 12520   0.325E+00    0.216E+00
DAV:   3    -0.191459303328E+03    0.44507E-01   -0.14440E-01 12120   0.276E+00    0.114E+00
DAV:   4    -0.191455525831E+03    0.37775E-02   -0.46181E-02 12240   0.147E+00    0.101E+00
DAV:   5    -0.191447507451E+03    0.80184E-02   -0.32105E-02 11040   0.128E+00    0.606E-01
DAV:   6    -0.191444104539E+03    0.34029E-02   -0.11016E-02 12480   0.618E-01    0.256E-01
DAV:   7    -0.191444396796E+03   -0.29226E-03   -0.60886E-03 12480   0.444E-01    0.375E-01
DAV:   8    -0.191443089938E+03    0.13069E-02   -0.32425E-03 11440   0.376E-01    0.106E-01
DAV:   9    -0.191442979899E+03    0.11004E-03   -0.37547E-04  8640   0.952E-02    0.380E-02
DAV:  10    -0.191442964720E+03    0.15179E-04   -0.13687E-04  7880   0.391E-02
  14 F= -.19144296E+03 E0= -.19133904E+03  d E =0.121598E+00
       N       E                     dE             d eps       ncg     rms          rms(c)
DAV:   1    -0.191410150082E+03    0.32830E-01   -0.24324E+00  8160   0.331E+00    0.358E-01
DAV:   2    -0.191418549630E+03   -0.83995E-02   -0.65774E-02 13280   0.951E-01    0.736E-01
DAV:   3    -0.191414555119E+03    0.39945E-02   -0.18741E-02 12320   0.981E-01    0.468E-01
DAV:   4    -0.191412814413E+03    0.17407E-02   -0.48798E-03 11440   0.449E-01    0.201E-01
DAV:   5    -0.191412347945E+03    0.46647E-03   -0.19389E-03 10480   0.264E-01    0.175E-01
DAV:   6    -0.191412339746E+03    0.81989E-05   -0.15252E-03 10240   0.280E-01    0.164E-01
DAV:   7    -0.191412261420E+03    0.78326E-04   -0.98147E-04  9160   0.206E-01
  15 F= -.19141226E+03 E0= -.19130861E+03  d E =0.307033E-01
       N       E                     dE             d eps       ncg     rms          rms(c)
DAV:   1    -0.191411407685E+03    0.93206E-03   -0.42107E+00  8160   0.439E+00    0.526E-01
DAV:   2    -0.191428560360E+03   -0.17153E-01   -0.13460E-01 13600   0.157E+00    0.106E+00
DAV:   3    -0.191417745838E+03    0.10815E-01   -0.37986E-02 12200   0.138E+00    0.536E-01
DAV:   4    -0.191416708833E+03    0.10370E-02   -0.11650E-02 11640   0.718E-01    0.467E-01
DAV:   5    -0.191415309937E+03    0.13989E-02   -0.72627E-03 10400   0.620E-01    0.371E-01
DAV:   6    -0.191413873230E+03    0.14367E-02   -0.36917E-03 11120   0.383E-01    0.116E-01
DAV:   7    -0.191413794176E+03    0.79053E-04   -0.82909E-04 10440   0.124E-01
  16 F= -.19141379E+03 E0= -.19131057E+03  d E =-.153276E-02
       N       E                     dE             d eps       ncg     rms          rms(c)
DAV:   1    -0.191402886542E+03    0.10987E-01   -0.72813E+00  8160   0.575E+00    0.684E-01
DAV:   2    -0.191441792219E+03   -0.38906E-01   -0.21131E-01 13520   0.200E+00    0.184E+00
DAV:   3    -0.191411997008E+03    0.29795E-01   -0.88871E-02 11400   0.210E+00    0.719E-01
DAV:   4    -0.191408109399E+03    0.38876E-02   -0.15673E-02 11360   0.724E-01    0.389E-01
DAV:   5    -0.191406919454E+03    0.11899E-02   -0.75577E-03 10840   0.561E-01    0.428E-01
DAV:   6    -0.191405780348E+03    0.11391E-02   -0.60370E-03 10360   0.540E-01    0.260E-01
DAV:   7    -0.191406003095E+03   -0.22275E-03   -0.29922E-03 12240   0.386E-01    0.281E-01
DAV:   8    -0.191405165676E+03    0.83742E-03   -0.14725E-03  9760   0.291E-01    0.630E-02
DAV:   9    -0.191405122075E+03    0.43602E-04   -0.12437E-04  5800   0.601E-02
  17 F= -.19140512E+03 E0= -.19130309E+03  d E =0.867210E-02
       N       E                     dE             d eps       ncg     rms          rms(c)
DAV:   1    -0.191438638878E+03   -0.33473E-01   -0.30122E+00  8160   0.366E+00    0.418E-01
DAV:   2    -0.191460397724E+03   -0.21759E-01   -0.10615E-01 12280   0.160E+00    0.142E+00
DAV:   3    -0.191443445484E+03    0.16952E-01   -0.41020E-02 11960   0.137E+00    0.362E-01
DAV:   4    -0.191443839440E+03   -0.39396E-03   -0.62315E-03 11360   0.564E-01    0.411E-01
DAV:   5    -0.191442040615E+03    0.17988E-02   -0.38603E-03 10600   0.474E-01    0.163E-01
DAV:   6    -0.191442107780E+03   -0.67165E-04   -0.16731E-03 10640   0.235E-01    0.181E-01
DAV:   7    -0.191442044070E+03    0.63709E-04   -0.16020E-03 10360   0.284E-01    0.163E-01
DAV:   8    -0.191441724657E+03    0.31941E-03   -0.48134E-04  8200   0.144E-01    0.193E-02
DAV:   9    -0.191441736046E+03   -0.11389E-04   -0.50050E-05  6120   0.253E-02
  18 F= -.19144174E+03 E0= -.19134004E+03  d E =-.366140E-01
       N       E                     dE             d eps       ncg     rms          rms(c)
DAV:   1    -0.191402866716E+03    0.38858E-01   -0.38155E+00  8160   0.414E+00    0.466E-01
DAV:   2    -0.191424647488E+03   -0.21781E-01   -0.11902E-01 12400   0.170E+00    0.131E+00
DAV:   3    -0.191407506191E+03    0.17141E-01   -0.36777E-02 12040   0.137E+00    0.406E-01
DAV:   4    -0.191407329034E+03    0.17716E-03   -0.67142E-03 11120   0.542E-01    0.376E-01
DAV:   5    -0.191406017501E+03    0.13115E-02   -0.43498E-03 11760   0.502E-01    0.230E-01
DAV:   6    -0.191405636471E+03    0.38103E-03   -0.21376E-03 11680   0.273E-01    0.128E-01
DAV:   7    -0.191405780472E+03   -0.14400E-03   -0.12774E-03 10000   0.236E-01    0.193E-01
DAV:   8    -0.191405399073E+03    0.38140E-03   -0.63111E-04  8280   0.185E-01    0.357E-02
DAV:   9    -0.191405401526E+03   -0.24532E-05   -0.57348E-05  5520   0.367E-02
  19 F= -.19140540E+03 E0= -.19130269E+03  d E =0.363345E-01
       N       E                     dE             d eps       ncg     rms          rms(c)
DAV:   1    -0.191370730590E+03    0.34668E-01   -0.78802E+00  8160   0.593E+00    0.605E-01
DAV:   2    -0.191395498560E+03   -0.24768E-01   -0.18268E-01 13200   0.171E+00    0.134E+00
DAV:   3    -0.191381921363E+03    0.13577E-01   -0.57369E-02 12280   0.167E+00    0.737E-01
DAV:   4    -0.191378964688E+03    0.29567E-02   -0.15831E-02 11840   0.759E-01    0.458E-01
DAV:   5    -0.191377073486E+03    0.18912E-02   -0.79702E-03 11440   0.636E-01    0.353E-01
DAV:   6    -0.191376105547E+03    0.96794E-03   -0.42600E-03 12200   0.437E-01    0.175E-01
DAV:   7    -0.191375912245E+03    0.19330E-03   -0.13593E-03 11400   0.209E-01    0.145E-01
DAV:   8    -0.191375721769E+03    0.19048E-03   -0.53378E-04  8760   0.164E-01    0.593E-02
DAV:   9    -0.191375697593E+03    0.24175E-04   -0.96495E-05  6040   0.597E-02
  20 F= -.19137570E+03 E0= -.19127140E+03  d E =0.297039E-01
       N       E                     dE             d eps       ncg     rms          rms(c)
DAV:   1    -0.191391121782E+03   -0.15400E-01   -0.21658E+00  8160   0.313E+00    0.347E-01
DAV:   2    -0.191400337870E+03   -0.92161E-02   -0.68374E-02 12520   0.987E-01    0.801E-01
DAV:   3    -0.191395673871E+03    0.46640E-02   -0.23605E-02 11600   0.998E-01    0.453E-01
DAV:   4    -0.191394268487E+03    0.14054E-02   -0.54517E-03 10880   0.447E-01    0.265E-01
DAV:   5    -0.191393681543E+03    0.58694E-03   -0.23829E-03 10320   0.352E-01    0.180E-01
DAV:   6    -0.191393458445E+03    0.22310E-03   -0.12300E-03 11320   0.223E-01    0.108E-01
DAV:   7    -0.191393410768E+03    0.47677E-04   -0.62472E-04 10240   0.137E-01
  21 F= -.19139341E+03 E0= -.19128785E+03  d E =-.177132E-01
       N       E                     dE             d eps       ncg     rms          rms(c)
DAV:   1    -0.191400127675E+03   -0.66692E-02   -0.79905E-01  8160   0.191E+00    0.210E-01
DAV:   2    -0.191401816520E+03   -0.16888E-02   -0.19397E-02 13120   0.506E-01    0.364E-01
DAV:   3    -0.191401320313E+03    0.49621E-03   -0.61552E-03 11480   0.520E-01    0.305E-01
DAV:   4    -0.191400481662E+03    0.83865E-03   -0.21013E-03 10080   0.280E-01    0.105E-01
DAV:   5    -0.191400420272E+03    0.61390E-04   -0.71102E-04 10200   0.148E-01
  22 F= -.19140042E+03 E0= -.19129503E+03  d E =-.700950E-02
       N       E                     dE             d eps       ncg     rms          rms(c)
DAV:   1    -0.191414194139E+03   -0.13712E-01   -0.14530E+00  8160   0.259E+00    0.382E-01
DAV:   2    -0.191428962233E+03   -0.14768E-01   -0.67698E-02 13120   0.149E+00    0.114E+00
DAV:   3    -0.191415202430E+03    0.13760E-01   -0.29325E-02 11560   0.122E+00    0.288E-01
DAV:   4    -0.191415704440E+03   -0.50201E-03   -0.61023E-03 11400   0.493E-01    0.395E-01
DAV:   5    -0.191414455679E+03    0.12488E-02   -0.41038E-03 10880   0.440E-01    0.206E-01
DAV:   6    -0.191413953904E+03    0.50178E-03   -0.13755E-03  9720   0.206E-01    0.844E-02
DAV:   7    -0.191414153140E+03   -0.19924E-03   -0.89205E-04 10160   0.194E-01    0.174E-01
DAV:   8    -0.191413856920E+03    0.29622E-03   -0.51006E-04  8360   0.163E-01    0.332E-02
DAV:   9    -0.191413855536E+03    0.13832E-05   -0.44025E-05  5640   0.333E-02
  23 F= -.19141386E+03 E0= -.19130726E+03  d E =-.134353E-01
       N       E                     dE             d eps       ncg     rms          rms(c)
DAV:   1    -0.191430266665E+03   -0.16410E-01   -0.11938E+00  8160   0.230E+00    0.234E-01
DAV:   2    -0.191435088766E+03   -0.48221E-02   -0.32835E-02 12480   0.786E-01    0.613E-01
DAV:   3    -0.191432171532E+03    0.29172E-02   -0.98101E-03 11840   0.671E-01    0.255E-01
DAV:   4    -0.191431671520E+03    0.50001E-03   -0.15005E-03  9520   0.232E-01    0.131E-01
DAV:   5    -0.191431703089E+03   -0.31569E-04   -0.11094E-03 10600   0.241E-01    0.155E-01
DAV:   6    -0.191431559817E+03    0.14327E-03   -0.75909E-04  9200   0.185E-01    0.887E-02
DAV:   7    -0.191431567498E+03   -0.76814E-05   -0.43234E-04  8360   0.148E-01
  24 F= -.19143157E+03 E0= -.19132538E+03  d E =-.177120E-01
       N       E                     dE             d eps       ncg     rms          rms(c)
DAV:   1    -0.191443608747E+03   -0.12049E-01   -0.55505E-01  8160   0.159E+00    0.165E-01
DAV:   2    -0.191445166293E+03   -0.15575E-02   -0.14819E-02 12400   0.425E-01    0.310E-01
DAV:   3    -0.191444714235E+03    0.45206E-03   -0.41042E-03 11800   0.424E-01    0.236E-01
DAV:   4    -0.191444295912E+03    0.41832E-03   -0.11535E-03  9440   0.213E-01    0.105E-01
DAV:   5    -0.191444238563E+03    0.57349E-04   -0.51026E-04  8400   0.159E-01
  25 F= -.19144424E+03 E0= -.19133788E+03  d E =-.126711E-01
       N       E                     dE             d eps       ncg     rms          rms(c)
DAV:   1    -0.191428140128E+03    0.16156E-01   -0.18810E+00  8160   0.292E+00    0.306E-01
DAV:   2    -0.191432528853E+03   -0.43887E-02   -0.44887E-02 13360   0.694E-01    0.482E-01
DAV:   3    -0.191431603089E+03    0.92576E-03   -0.12592E-02 12240   0.765E-01    0.474E-01
DAV:   4    -0.191429790360E+03    0.18127E-02   -0.47816E-03 11680   0.473E-01    0.184E-01
DAV:   5    -0.191429326937E+03    0.46342E-03   -0.13164E-03 10040   0.192E-01    0.118E-01
DAV:   6    -0.191429502586E+03   -0.17565E-03   -0.11375E-03 10280   0.240E-01    0.173E-01
DAV:   7    -0.191429290534E+03    0.21205E-03   -0.73189E-04  8160   0.187E-01    0.944E-02
DAV:   8    -0.191429217562E+03    0.72972E-04   -0.25397E-04  6960   0.110E-01
  26 F= -.19142922E+03 E0= -.19132365E+03  d E =0.150210E-01
       N       E                     dE             d eps       ncg     rms          rms(c)
DAV:   1    -0.191439420524E+03   -0.10130E-01   -0.36471E+00  8160   0.406E+00    0.423E-01
DAV:   2    -0.191448145781E+03   -0.87253E-02   -0.82281E-02 12960   0.104E+00    0.783E-01
DAV:   3    -0.191444997569E+03    0.31482E-02   -0.25114E-02 12040   0.106E+00    0.588E-01
DAV:   4    -0.191442549600E+03    0.24480E-02   -0.84853E-03 11600   0.581E-01    0.286E-01
DAV:   5    -0.191441839247E+03    0.71035E-03   -0.33797E-03 10560   0.399E-01    0.256E-01
DAV:   6    -0.191441380185E+03    0.45906E-03   -0.23482E-03 12120   0.344E-01    0.142E-01
DAV:   7    -0.191441296913E+03    0.83273E-04   -0.85604E-04  9600   0.179E-01
  27 F= -.19144130E+03 E0= -.19133719E+03  d E =-.120794E-01
       N       E                     dE             d eps       ncg     rms          rms(c)
DAV:   1    -0.191443364535E+03   -0.19843E-02   -0.17241E-02  8160   0.314E-01    0.656E-02
DAV:   2    -0.191444293395E+03   -0.92886E-03   -0.22559E-03 11600   0.311E-01    0.301E-01
DAV:   3    -0.191443344485E+03    0.94891E-03   -0.14460E-03  9960   0.276E-01    0.377E-02
DAV:   4    -0.191443361325E+03   -0.16840E-04   -0.64484E-05  5480   0.471E-02
  28 F= -.19144336E+03 E0= -.19133926E+03  d E =-.206441E-02
       N       E                     dE             d eps       ncg     rms          rms(c)
DAV:   1    -0.191464716841E+03   -0.21372E-01   -0.14090E+00  8160   0.250E+00    0.265E-01
DAV:   2    -0.191471461087E+03   -0.67442E-02   -0.42307E-02 12080   0.887E-01    0.750E-01
DAV:   3    -0.191466998026E+03    0.44631E-02   -0.13078E-02 12080   0.776E-01    0.263E-01
DAV:   4    -0.191466346078E+03    0.65195E-03   -0.13786E-03 10240   0.210E-01    0.104E-01
DAV:   5    -0.191466646476E+03   -0.30040E-03   -0.12994E-03 11240   0.242E-01    0.216E-01
DAV:   6    -0.191466294002E+03    0.35247E-03   -0.12594E-03  9600   0.243E-01    0.895E-02
DAV:   7    -0.191466229986E+03    0.64016E-04   -0.28429E-04  6920   0.105E-01
  29 F= -.19146623E+03 E0= -.19136298E+03  d E =-.228687E-01
       N       E                     dE             d eps       ncg     rms          rms(c)
DAV:   1    -0.191447213326E+03    0.19081E-01   -0.10435E+00  8160   0.217E+00    0.235E-01
DAV:   2    -0.191452775110E+03   -0.55618E-02   -0.32909E-02 12000   0.802E-01    0.673E-01
DAV:   3    -0.191448725801E+03    0.40493E-02   -0.10388E-02 12120   0.704E-01    0.218E-01
DAV:   4    -0.191448373676E+03    0.35212E-03   -0.14652E-03 10600   0.218E-01    0.129E-01
DAV:   5    -0.191448347657E+03    0.26019E-04   -0.10281E-03 11360   0.230E-01    0.144E-01
DAV:   6    -0.191448178761E+03    0.16890E-03   -0.64344E-04  9160   0.176E-01    0.712E-02
DAV:   7    -0.191448221490E+03   -0.42729E-04   -0.36582E-04  7560   0.130E-01
  30 F= -.19144822E+03 E0= -.19134441E+03  d E =0.180085E-01
       N       E                     dE             d eps       ncg     rms          rms(c)
DAV:   1    -0.191422666855E+03    0.25512E-01   -0.35028E+00  8160   0.402E+00    0.478E-01
DAV:   2    -0.191439755536E+03   -0.17089E-01   -0.12058E-01 13000   0.146E+00    0.118E+00
DAV:   3    -0.191428715361E+03    0.11040E-01   -0.37637E-02 12320   0.133E+00    0.516E-01
DAV:   4    -0.191426312050E+03    0.24033E-02   -0.70739E-03 12120   0.477E-01    0.221E-01
DAV:   5    -0.191425873779E+03    0.43827E-03   -0.29589E-03 11560   0.314E-01    0.217E-01
DAV:   6    -0.191425855488E+03    0.18291E-04   -0.26404E-03 12280   0.377E-01    0.204E-01
DAV:   7    -0.191425344017E+03    0.51147E-03   -0.10021E-03  9800   0.212E-01    0.512E-02
DAV:   8    -0.191425334034E+03    0.99831E-05   -0.16210E-04  6640   0.790E-02
  31 F= -.19142533E+03 E0= -.19132119E+03  d E =0.228875E-01
       N       E                     dE             d eps       ncg     rms          rms(c)
DAV:   1    -0.191458722789E+03   -0.33379E-01   -0.35506E+00  8160   0.398E+00    0.441E-01
DAV:   2    -0.191485231933E+03   -0.26509E-01   -0.12084E-01 12200   0.165E+00    0.159E+00
DAV:   3    -0.191464276575E+03    0.20955E-01   -0.47220E-02 11880   0.147E+00    0.344E-01
DAV:   4    -0.191463997746E+03    0.27883E-03   -0.44786E-03 11440   0.404E-01    0.349E-01
DAV:   5    -0.191463082585E+03    0.91516E-03   -0.37047E-03 10920   0.432E-01    0.197E-01
DAV:   6    -0.191462965564E+03    0.11702E-03   -0.14841E-03 11800   0.212E-01    0.109E-01
DAV:   7    -0.191462766670E+03    0.19889E-03   -0.55727E-04  9760   0.134E-01    0.676E-02
DAV:   8    -0.191462730271E+03    0.36398E-04   -0.13637E-04  6640   0.919E-02
  32 F= -.19146273E+03 E0= -.19135985E+03  d E =-.373962E-01
       N       E                     dE             d eps       ncg     rms          rms(c)
DAV:   1    -0.191454768245E+03    0.79984E-02   -0.38709E-01  8160   0.133E+00    0.144E-01
DAV:   2    -0.191456130528E+03   -0.13623E-02   -0.10675E-02 13080   0.405E-01    0.320E-01
DAV:   3    -0.191455347331E+03    0.78320E-03   -0.30575E-03 11160   0.383E-01    0.172E-01
DAV:   4    -0.191455141551E+03    0.20578E-03   -0.76124E-04  8280   0.174E-01    0.913E-02
DAV:   5    -0.191455115894E+03    0.25657E-04   -0.45841E-04  8840   0.154E-01
  33 F= -.19145512E+03 E0= -.19135230E+03  d E =0.761438E-02
       N       E                     dE             d eps       ncg     rms          rms(c)
DAV:   1    -0.191476998360E+03   -0.21857E-01   -0.24450E+00  8160   0.330E+00    0.346E-01
DAV:   2    -0.191488987477E+03   -0.11989E-01   -0.65276E-02 13600   0.116E+00    0.990E-01
DAV:   3    -0.191479734017E+03    0.92535E-02   -0.22715E-02 12360   0.106E+00    0.293E-01
DAV:   4    -0.191479193090E+03    0.54093E-03   -0.27075E-03 11160   0.282E-01    0.196E-01
DAV:   5    -0.191479297598E+03   -0.10451E-03   -0.23758E-03 11400   0.342E-01    0.260E-01
DAV:   6    -0.191478829296E+03    0.46830E-03   -0.17831E-03  9520   0.279E-01    0.112E-01
DAV:   7    -0.191478791133E+03    0.38163E-04   -0.57452E-04  8600   0.156E-01
  34 F= -.19147879E+03 E0= -.19137739E+03  d E =-.236752E-01
       N       E                     dE             d eps       ncg     rms          rms(c)
DAV:   1    -0.191482137447E+03   -0.33082E-02   -0.16050E+00  8160   0.271E+00    0.296E-01
DAV:   2    -0.191486809525E+03   -0.46721E-02   -0.40393E-02 13600   0.778E-01    0.594E-01
DAV:   3    -0.191484525021E+03    0.22845E-02   -0.13195E-02 12240   0.787E-01    0.387E-01
DAV:   4    -0.191483402292E+03    0.11227E-02   -0.37621E-03 10880   0.383E-01    0.193E-01
DAV:   5    -0.191483317330E+03    0.84962E-04   -0.19803E-03 10080   0.318E-01    0.215E-01
DAV:   6    -0.191482934946E+03    0.38238E-03   -0.13537E-03  9840   0.252E-01    0.108E-01
DAV:   7    -0.191483069437E+03   -0.13449E-03   -0.76597E-04  8720   0.201E-01    0.151E-01
DAV:   8    -0.191482815989E+03    0.25345E-03   -0.34597E-04  8120   0.144E-01    0.202E-02
DAV:   9    -0.191482823449E+03   -0.74601E-05   -0.33127E-05  5920   0.245E-02
  35 F= -.19148282E+03 E0= -.19138124E+03  d E =-.403232E-02
       N       E                     dE             d eps       ncg     rms          rms(c)
DAV:   1    -0.191527239058E+03   -0.44423E-01   -0.79785E+00  8160   0.603E+00    0.631E-01
DAV:   2    -0.191553209599E+03   -0.25971E-01   -0.21038E-01 12080   0.173E+00    0.142E+00
DAV:   3    -0.191541011834E+03    0.12198E-01   -0.60860E-02 12200   0.169E+00    0.767E-01
DAV:   4    -0.191535683777E+03    0.53281E-02   -0.11256E-02 11160   0.668E-01    0.320E-01
DAV:   5    -0.191535441132E+03    0.24265E-03   -0.70158E-03 11880   0.565E-01    0.391E-01
DAV:   6    -0.191534549994E+03    0.89114E-03   -0.49362E-03 12440   0.527E-01    0.238E-01
DAV:   7    -0.191534350625E+03    0.19937E-03   -0.24596E-03 10680   0.336E-01    0.231E-01
DAV:   8    -0.191533798312E+03    0.55231E-03   -0.11561E-03  9440   0.238E-01    0.525E-02
DAV:   9    -0.191533780914E+03    0.17399E-04   -0.10311E-04  6120   0.517E-02
  36 F= -.19153378E+03 E0= -.19143419E+03  d E =-.509575E-01
       N       E                     dE             d eps       ncg     rms          rms(c)
DAV:   1    -0.191539482955E+03   -0.56846E-02   -0.23572E+00  8160   0.330E+00    0.392E-01
DAV:   2    -0.191548055981E+03   -0.85730E-02   -0.66988E-02 13600   0.113E+00    0.859E-01
DAV:   3    -0.191541991998E+03    0.60640E-02   -0.22898E-02 12280   0.107E+00    0.420E-01
DAV:   4    -0.191540743092E+03    0.12489E-02   -0.64975E-03 12240   0.483E-01    0.261E-01
DAV:   5    -0.191540483592E+03    0.25950E-03   -0.34160E-03 10560   0.423E-01    0.274E-01
DAV:   6    -0.191539746043E+03    0.73755E-03   -0.20487E-03 10480   0.319E-01    0.111E-01
DAV:   7    -0.191539962919E+03   -0.21688E-03   -0.10428E-03  9800   0.218E-01    0.190E-01
DAV:   8    -0.191539610949E+03    0.35197E-03   -0.57385E-04  8520   0.178E-01    0.404E-02
DAV:   9    -0.191539600795E+03    0.10155E-04   -0.58857E-05  5640   0.407E-02
  37 F= -.19153960E+03 E0= -.19144073E+03  d E =-.581988E-02
       N       E                     dE             d eps       ncg     rms          rms(c)
DAV:   1    -0.191545680884E+03   -0.60699E-02   -0.10152E-01  8160   0.670E-01    0.713E-02
DAV:   2    -0.191546152012E+03   -0.47113E-03   -0.27612E-03 13160   0.251E-01    0.198E-01
DAV:   3    -0.191545775438E+03    0.37657E-03   -0.93525E-04  9680   0.215E-01    0.630E-02
DAV:   4    -0.191545768393E+03    0.70446E-05   -0.11956E-04  5840   0.733E-02
  38 F= -.19154577E+03 E0= -.19144728E+03  d E =-.616760E-02
       N       E                     dE             d eps       ncg     rms          rms(c)
DAV:   1    -0.191581457105E+03   -0.35682E-01   -0.24813E+00  8160   0.333E+00    0.356E-01
DAV:   2    -0.191594297791E+03   -0.12841E-01   -0.73913E-02 12040   0.125E+00    0.105E+00
DAV:   3    -0.191584938444E+03    0.93593E-02   -0.22892E-02 12040   0.109E+00    0.331E-01
DAV:   4    -0.191584382657E+03    0.55579E-03   -0.31046E-03 11000   0.375E-01    0.276E-01
DAV:   5    -0.191584017544E+03    0.36511E-03   -0.31471E-03 11200   0.408E-01    0.219E-01
DAV:   6    -0.191583763710E+03    0.25383E-03   -0.16040E-03 10240   0.254E-01    0.141E-01
DAV:   7    -0.191583667194E+03    0.96516E-04   -0.77085E-04 10360   0.217E-01
  39 F= -.19158367E+03 E0= -.19148758E+03  d E =-.378988E-01
       N       E                     dE             d eps       ncg     rms          rms(c)
DAV:   1    -0.191595436109E+03   -0.11672E-01   -0.46532E-01  8160   0.145E+00    0.183E-01
DAV:   2    -0.191597419886E+03   -0.19838E-02   -0.13758E-02 13600   0.546E-01    0.433E-01
DAV:   3    -0.191595696946E+03    0.17229E-02   -0.51691E-03 11840   0.511E-01    0.174E-01
DAV:   4    -0.191595502874E+03    0.19407E-03   -0.12301E-03 10000   0.204E-01    0.112E-01
DAV:   5    -0.191595420955E+03    0.81919E-04   -0.63244E-04 10480   0.175E-01
  40 F= -.19159542E+03 E0= -.19149988E+03  d E =-.117538E-01
       N       E                     dE             d eps       ncg     rms          rms(c)
DAV:   1    -0.191665058409E+03   -0.69556E-01   -0.74893E+00  8160   0.578E+00    0.696E-01
DAV:   2    -0.191709805089E+03   -0.44747E-01   -0.23678E-01 13080   0.248E+00    0.206E+00
DAV:   3    -0.191670680224E+03    0.39125E-01   -0.84743E-02 12320   0.213E+00    0.487E-01
DAV:   4    -0.191670539005E+03    0.14122E-03   -0.12203E-02 12240   0.744E-01    0.597E-01
DAV:   5    -0.191668384599E+03    0.21544E-02   -0.10753E-02 11600   0.826E-01    0.454E-01
DAV:   6    -0.191667585063E+03    0.79954E-03   -0.68399E-03 11520   0.546E-01    0.341E-01
DAV:   7    -0.191666707424E+03    0.87764E-03   -0.37430E-03 11480   0.465E-01    0.186E-01
DAV:   8    -0.191666257036E+03    0.45039E-03   -0.81523E-04 10080   0.182E-01    0.389E-02
DAV:   9    -0.191666232021E+03    0.25016E-04   -0.10093E-04  6880   0.387E-02
  41 F= -.19166623E+03 E0= -.19157435E+03  d E =-.708111E-01
       N       E                     dE             d eps       ncg     rms          rms(c)
DAV:   1    -0.191695656577E+03   -0.29400E-01   -0.12478E+00  8160   0.237E+00    0.267E-01
DAV:   2    -0.191701018706E+03   -0.53621E-02   -0.41768E-02 11920   0.884E-01    0.610E-01
DAV:   3    -0.191697678897E+03    0.33398E-02   -0.10719E-02 12240   0.759E-01    0.278E-01
DAV:   4    -0.191697224696E+03    0.45420E-03   -0.20829E-03 10600   0.333E-01    0.209E-01
DAV:   5    -0.191697022633E+03    0.20206E-03   -0.15927E-03 10120   0.317E-01    0.177E-01
DAV:   6    -0.191696917923E+03    0.10471E-03   -0.11214E-03 10120   0.226E-01    0.145E-01
DAV:   7    -0.191696778312E+03    0.13961E-03   -0.64329E-04  8680   0.189E-01    0.865E-02
DAV:   8    -0.191696701580E+03    0.76732E-04   -0.14638E-04  6440   0.873E-02
  42 F= -.19169670E+03 E0= -.19160662E+03  d E =-.304696E-01
       N       E                     dE             d eps       ncg     rms          rms(c)
DAV:   1    -0.191741778632E+03   -0.45000E-01   -0.31783E+00  8160   0.375E+00    0.391E-01
DAV:   2    -0.191757249095E+03   -0.15470E-01   -0.92583E-02 12600   0.141E+00    0.108E+00
DAV:   3    -0.191745931297E+03    0.11318E-01   -0.26620E-02 12440   0.121E+00    0.303E-01
DAV:   4    -0.191745356413E+03    0.57488E-03   -0.32089E-03 11240   0.330E-01    0.237E-01
DAV:   5    -0.191745322896E+03    0.33517E-04   -0.26867E-03 12360   0.397E-01    0.276E-01
DAV:   6    -0.191744833185E+03    0.48971E-03   -0.19675E-03  9960   0.305E-01    0.131E-01
DAV:   7    -0.191744716734E+03    0.11645E-03   -0.75588E-04  9800   0.161E-01    0.965E-02
DAV:   8    -0.191744607440E+03    0.10929E-03   -0.20285E-04  8160   0.119E-01    0.331E-02
DAV:   9    -0.191744599205E+03    0.82349E-05   -0.37960E-05  6240   0.406E-02
  43 F= -.19174460E+03 E0= -.19165670E+03  d E =-.478976E-01
       N       E                     dE             d eps       ncg     rms          rms(c)
DAV:   1    -0.191847391390E+03   -0.10278E+00   -0.39219E+01  8160   0.133E+01    0.139E+00
DAV:   2    -0.192030821273E+03   -0.18343E+00   -0.12161E+00 11600   0.485E+00    0.359E+00
DAV:   3    -0.191911880896E+03    0.11894E+00   -0.32429E-01 12240   0.422E+00    0.111E+00
DAV:   4    -0.191902251967E+03    0.96289E-02   -0.44424E-02 11640   0.129E+00    0.923E-01
DAV:   5    -0.191897210079E+03    0.50419E-02   -0.34388E-02 12360   0.146E+00    0.826E-01
DAV:   6    -0.191895200252E+03    0.20098E-02   -0.25768E-02 12600   0.112E+00    0.660E-01
DAV:   7    -0.191892472652E+03    0.27276E-02   -0.13929E-02 11600   0.900E-01    0.490E-01
DAV:   8    -0.191889500164E+03    0.29725E-02   -0.40992E-03 11720   0.529E-01    0.871E-02
DAV:   9    -0.191889446514E+03    0.53650E-04   -0.58693E-04 10560   0.979E-02
  44 F= -.19188945E+03 E0= -.19180589E+03  d E =-.144847E+00
       N       E                     dE             d eps       ncg     rms          rms(c)
DAV:   1    -0.191895000705E+03   -0.55005E-02   -0.11685E+00  8160   0.231E+00    0.275E-01
DAV:   2    -0.191900571964E+03   -0.55713E-02   -0.44558E-02 13240   0.969E-01    0.596E-01
DAV:   3    -0.191896906352E+03    0.36656E-02   -0.80113E-03 12240   0.704E-01    0.216E-01
DAV:   4    -0.191896776441E+03    0.12991E-03   -0.24492E-03 10560   0.331E-01    0.229E-01
DAV:   5    -0.191896448662E+03    0.32778E-03   -0.18281E-03 11520   0.341E-01    0.180E-01
DAV:   6    -0.191896289209E+03    0.15945E-03   -0.10759E-03 10160   0.229E-01    0.130E-01
DAV:   7    -0.191896240979E+03    0.48230E-04   -0.66081E-04  9920   0.207E-01
  45 F= -.19189624E+03 E0= -.19181409E+03  d E =-.679446E-02
       N       E                     dE             d eps       ncg     rms          rms(c)
DAV:   1    -0.191919618609E+03   -0.23329E-01   -0.20073E+00  8160   0.300E+00    0.335E-01
DAV:   2    -0.191928041664E+03   -0.84231E-02   -0.57202E-02 12360   0.111E+00    0.816E-01
DAV:   3    -0.191921559455E+03    0.64822E-02   -0.15474E-02 12400   0.965E-01    0.261E-01
DAV:   4    -0.191921090251E+03    0.46920E-03   -0.26994E-03 11440   0.316E-01    0.219E-01
DAV:   5    -0.191921012407E+03    0.77844E-04   -0.22602E-03 11080   0.370E-01    0.253E-01
DAV:   6    -0.191920516352E+03    0.49605E-03   -0.16122E-03  9680   0.281E-01    0.100E-01
DAV:   7    -0.191920380628E+03    0.13572E-03   -0.40217E-04  8120   0.898E-02    0.309E-02
DAV:   8    -0.191920371247E+03    0.93814E-05   -0.67090E-05  7360   0.540E-02
  46 F= -.19192037E+03 E0= -.19183811E+03  d E =-.241303E-01
       N       E                     dE             d eps       ncg     rms          rms(c)
DAV:   1    -0.191948742048E+03   -0.28361E-01   -0.38009E+00  8160   0.415E+00    0.443E-01
DAV:   2    -0.191962658736E+03   -0.13917E-01   -0.12611E-01 11360   0.130E+00    0.830E-01
DAV:   3    -0.191957543609E+03    0.51151E-02   -0.23996E-02 12280   0.118E+00    0.494E-01
DAV:   4    -0.191955902306E+03    0.16413E-02   -0.57063E-03 11840   0.558E-01    0.331E-01
DAV:   5    -0.191954978534E+03    0.92377E-03   -0.35144E-03 12080   0.475E-01    0.230E-01
DAV:   6    -0.191954928641E+03    0.49894E-04   -0.24156E-03 11520   0.332E-01    0.190E-01
DAV:   7    -0.191954715763E+03    0.21288E-03   -0.13795E-03 10120   0.273E-01    0.154E-01
DAV:   8    -0.191954418823E+03    0.29694E-03   -0.37647E-04  8480   0.167E-01    0.237E-02
DAV:   9    -0.191954423371E+03   -0.45481E-05   -0.56782E-05  6080   0.321E-02
  47 F= -.19195442E+03 E0= -.19187297E+03  d E =-.340521E-01
       N       E                     dE             d eps       ncg     rms          rms(c)
DAV:   1    -0.191981503004E+03   -0.27084E-01   -0.41839E+00  8160   0.442E+00    0.544E-01
DAV:   2    -0.191998055973E+03   -0.16553E-01   -0.15631E-01 12480   0.154E+00    0.107E+00
DAV:   3    -0.191989882780E+03    0.81732E-02   -0.34200E-02 12160   0.142E+00    0.576E-01
DAV:   4    -0.191987075986E+03    0.28068E-02   -0.85343E-03 12240   0.652E-01    0.374E-01
DAV:   5    -0.191986331052E+03    0.74493E-03   -0.60192E-03 11760   0.602E-01    0.352E-01
DAV:   6    -0.191985509030E+03    0.82202E-03   -0.42670E-03 11280   0.445E-01    0.178E-01
DAV:   7    -0.191984966427E+03    0.54260E-03   -0.13200E-03 10120   0.162E-01    0.479E-02
DAV:   8    -0.191984966323E+03    0.10423E-06   -0.18045E-04  8840   0.953E-02
  48 F= -.19198497E+03 E0= -.19190393E+03  d E =-.305430E-01
       N       E                     dE             d eps       ncg     rms          rms(c)
DAV:   1    -0.192002766477E+03   -0.17800E-01   -0.56519E+00  8160   0.506E+00    0.539E-01
DAV:   2    -0.192022928344E+03   -0.20162E-01   -0.18343E-01 11120   0.152E+00    0.992E-01
DAV:   3    -0.192015863283E+03    0.70651E-02   -0.33770E-02 12320   0.142E+00    0.614E-01
DAV:   4    -0.192013705926E+03    0.21574E-02   -0.90073E-03 11600   0.742E-01    0.435E-01
DAV:   5    -0.192011748128E+03    0.19578E-02   -0.50432E-03 11480   0.599E-01    0.222E-01
DAV:   6    -0.192011833307E+03   -0.85180E-04   -0.27171E-03 12720   0.340E-01    0.196E-01
DAV:   7    -0.192011493055E+03    0.34025E-03   -0.18049E-03 11280   0.304E-01    0.164E-01
DAV:   8    -0.192011186247E+03    0.30681E-03   -0.49341E-04  8480   0.175E-01    0.309E-02
DAV:   9    -0.192011182330E+03    0.39168E-05   -0.66390E-05  5720   0.368E-02
  49 F= -.19201118E+03 E0= -.19193090E+03  d E =-.262160E-01
       N       E                     dE             d eps       ncg     rms          rms(c)
DAV:   1    -0.192015030702E+03   -0.38445E-02   -0.24320E-01  8160   0.105E+00    0.123E-01
DAV:   2    -0.192016274076E+03   -0.12434E-02   -0.10902E-02 11280   0.451E-01    0.247E-01
DAV:   3    -0.192015659475E+03    0.61460E-03   -0.20995E-03 12200   0.354E-01    0.108E-01
DAV:   4    -0.192015559034E+03    0.10044E-03   -0.37633E-04  8240   0.147E-01    0.803E-02
DAV:   5    -0.192015525041E+03    0.33993E-04   -0.21869E-04  7760   0.126E-01
  50 F= -.19201553E+03 E0= -.19193560E+03  d E =-.434271E-02
       N       E                     dE             d eps       ncg     rms          rms(c)
DAV:   1    -0.192021998472E+03   -0.64394E-02   -0.51612E-01  8160   0.153E+00    0.180E-01
DAV:   2    -0.192023339688E+03   -0.13412E-02   -0.18172E-02 11080   0.442E-01    0.222E-01
DAV:   3    -0.192023348209E+03   -0.85209E-05   -0.31607E-03 12120   0.439E-01    0.235E-01
DAV:   4    -0.192022692644E+03    0.65557E-03   -0.10762E-03 10080   0.254E-01    0.676E-02
DAV:   5    -0.192022695828E+03   -0.31843E-05   -0.30595E-04  7840   0.112E-01
  51 F= -.19202270E+03 E0= -.19194303E+03  d E =-.717079E-02
       N       E                     dE             d eps       ncg     rms          rms(c)
DAV:   1    -0.192030421442E+03   -0.77288E-02   -0.12785E+00  8160   0.239E+00    0.250E-01
DAV:   2    -0.192034214112E+03   -0.37927E-02   -0.42693E-02 10880   0.619E-01    0.345E-01
DAV:   3    -0.192034000248E+03    0.21386E-03   -0.67431E-03 12400   0.632E-01    0.330E-01
DAV:   4    -0.192033040927E+03    0.95932E-03   -0.20528E-03 10520   0.362E-01    0.162E-01
DAV:   5    -0.192032881738E+03    0.15919E-03   -0.94638E-04  9920   0.249E-01    0.128E-01
DAV:   6    -0.192032887704E+03   -0.59663E-05   -0.65652E-04 11120   0.186E-01
  52 F= -.19203289E+03 E0= -.19195384E+03  d E =-.101919E-01
       N       E                     dE             d eps       ncg     rms          rms(c)
DAV:   1    -0.192038826815E+03   -0.59451E-02   -0.38113E+00  8160   0.413E+00    0.417E-01
DAV:   2    -0.192048215768E+03   -0.93890E-02   -0.12190E-01 10760   0.103E+00    0.446E-01
DAV:   3    -0.192050534051E+03   -0.23183E-02   -0.16041E-02 12200   0.983E-01    0.655E-01
DAV:   4    -0.192046037186E+03    0.44969E-02   -0.64599E-03 11880   0.675E-01    0.198E-01
DAV:   5    -0.192046074226E+03   -0.37040E-04   -0.20797E-03 10200   0.358E-01    0.225E-01
DAV:   6    -0.192045951437E+03    0.12279E-03   -0.20590E-03 11560   0.363E-01    0.176E-01
DAV:   7    -0.192045529358E+03    0.42208E-03   -0.86163E-04  9920   0.205E-01    0.741E-02
DAV:   8    -0.192045481335E+03    0.48022E-04   -0.15713E-04  7480   0.967E-02
  53 F= -.19204548E+03 E0= -.19196763E+03  d E =-.125936E-01
       N       E                     dE             d eps       ncg     rms          rms(c)
DAV:   1    -0.192047940597E+03   -0.24112E-02   -0.13380E+00  8160   0.244E+00    0.243E-01
DAV:   2    -0.192051481271E+03   -0.35407E-02   -0.46466E-02 10840   0.619E-01    0.222E-01
DAV:   3    -0.192052478400E+03   -0.99713E-03   -0.50659E-03 12280   0.537E-01    0.387E-01
DAV:   4    -0.192050924369E+03    0.15540E-02   -0.23130E-03 11080   0.409E-01    0.116E-01
DAV:   5    -0.192050931885E+03   -0.75167E-05   -0.75368E-04  9920   0.191E-01
  54 F= -.19205093E+03 E0= -.19197372E+03  d E =-.545055E-02
       N       E                     dE             d eps       ncg     rms          rms(c)
DAV:   1    -0.192051612673E+03   -0.68830E-03   -0.45565E-02  8160   0.497E-01    0.103E-01
DAV:   2    -0.192052694091E+03   -0.10814E-02   -0.33443E-03 12240   0.388E-01    0.292E-01
DAV:   3    -0.192051606021E+03    0.10881E-02   -0.15489E-03 10160   0.351E-01    0.817E-02
DAV:   4    -0.192051579637E+03    0.26384E-04   -0.25192E-04  7240   0.115E-01
  55 F= -.19205158E+03 E0= -.19197431E+03  d E =-.647752E-03
       N       E                     dE             d eps       ncg     rms          rms(c)
DAV:   1    -0.192052709272E+03   -0.11033E-02   -0.62810E-02  8160   0.538E-01    0.791E-02
DAV:   2    -0.192053312115E+03   -0.60284E-03   -0.28976E-03 11240   0.283E-01    0.217E-01
DAV:   3    -0.192052811013E+03    0.50110E-03   -0.85946E-04 10040   0.241E-01    0.625E-02
DAV:   4    -0.192052833661E+03   -0.22648E-04   -0.14894E-04  6360   0.106E-01
  56 F= -.19205283E+03 E0= -.19197548E+03  d E =-.125402E-02
       N       E                     dE             d eps       ncg     rms          rms(c)
DAV:   1    -0.192054662938E+03   -0.18519E-02   -0.12892E-01  8160   0.779E-01    0.100E-01
DAV:   2    -0.192055135045E+03   -0.47211E-03   -0.45833E-03 11440   0.246E-01    0.172E-01
DAV:   3    -0.192054943227E+03    0.19182E-03   -0.96882E-04 10640   0.252E-01    0.117E-01
DAV:   4    -0.192054843573E+03    0.99654E-04   -0.29394E-04  7440   0.124E-01
  57 F= -.19205484E+03 E0= -.19197755E+03  d E =-.200991E-02
       N       E                     dE             d eps       ncg     rms          rms(c)
DAV:   1    -0.192052142647E+03    0.28006E-02   -0.18644E-01  8160   0.950E-01    0.115E-01
DAV:   2    -0.192053153280E+03   -0.10106E-02   -0.72980E-03 11160   0.378E-01    0.243E-01
DAV:   3    -0.192052494035E+03    0.65925E-03   -0.16918E-03 11200   0.337E-01    0.984E-02
DAV:   4    -0.192052464856E+03    0.29179E-04   -0.34434E-04  8000   0.137E-01
  58 F= -.19205246E+03 E0= -.19197465E+03  d E =0.237872E-02
       N       E                     dE             d eps       ncg     rms          rms(c)
DAV:   1    -0.192053593956E+03   -0.10999E-02   -0.85319E-02  8160   0.630E-01    0.790E-02
DAV:   2    -0.192054118638E+03   -0.52468E-03   -0.38397E-03 10840   0.301E-01    0.172E-01
DAV:   3    -0.192053760152E+03    0.35849E-03   -0.68791E-04 10200   0.228E-01    0.468E-02
DAV:   4    -0.192053742562E+03    0.17590E-04   -0.73593E-05  6000   0.715E-02
  59 F= -.19205374E+03 E0= -.19197627E+03  d E =-.127771E-02
       N       E                     dE             d eps       ncg     rms          rms(c)
DAV:   1    -0.192054249534E+03   -0.48938E-03   -0.74110E-03  8160   0.199E-01    0.470E-02
DAV:   2    -0.192054641191E+03   -0.39166E-03   -0.82123E-04 11040   0.218E-01    0.194E-01
DAV:   3    -0.192054226514E+03    0.41468E-03   -0.45095E-04  8400   0.182E-01    0.251E-02
DAV:   4    -0.192054241146E+03   -0.14632E-04   -0.31941E-05  5520   0.527E-02
  60 F= -.19205424E+03 E0= -.19197667E+03  d E =-.498584E-03
       N       E                     dE             d eps       ncg     rms          rms(c)
DAV:   1    -0.192055311556E+03   -0.10850E-02   -0.46996E-02  8160   0.479E-01    0.699E-02
DAV:   2    -0.192055406598E+03   -0.95042E-04   -0.18772E-03 10480   0.140E-01    0.793E-02
DAV:   3    -0.192055399288E+03    0.73105E-05   -0.39645E-04  8840   0.153E-01
  61 F= -.19205540E+03 E0= -.19197778E+03  d E =-.115814E-02
       N       E                     dE             d eps       ncg     rms          rms(c)
DAV:   1    -0.192055560414E+03   -0.15382E-03   -0.13566E-02  8160   0.268E-01    0.503E-02
DAV:   2    -0.192055865555E+03   -0.30514E-03   -0.90560E-04 11360   0.194E-01    0.156E-01
DAV:   3    -0.192055565709E+03    0.29985E-03   -0.42307E-04  8560   0.175E-01    0.388E-02
DAV:   4    -0.192055563308E+03    0.24014E-05   -0.62040E-05  5440   0.550E-02
  62 F= -.19205556E+03 E0= -.19197793E+03  d E =-.164020E-03
       N       E                     dE             d eps       ncg     rms          rms(c)
DAV:   1    -0.192057808772E+03   -0.22431E-02   -0.13195E-01  8160   0.787E-01    0.102E-01
DAV:   2    -0.192058421445E+03   -0.61267E-03   -0.44367E-03 11880   0.311E-01    0.208E-01
DAV:   3    -0.192057962434E+03    0.45901E-03   -0.11523E-03 10080   0.280E-01    0.840E-02
DAV:   4    -0.192057936501E+03    0.25933E-04   -0.22949E-04  7000   0.111E-01
  63 F= -.19205794E+03 E0= -.19198038E+03  d E =-.237319E-02
       N       E                     dE             d eps       ncg     rms          rms(c)
DAV:   1    -0.192055198944E+03    0.27635E-02   -0.14795E-01  8160   0.840E-01    0.949E-02
DAV:   2    -0.192056040727E+03   -0.84178E-03   -0.49242E-03 10960   0.314E-01    0.244E-01
DAV:   3    -0.192055432725E+03    0.60800E-03   -0.12205E-03 10080   0.289E-01    0.777E-02
DAV:   4    -0.192055454650E+03   -0.21926E-04   -0.23437E-04  7880   0.122E-01
  64 F= -.19205545E+03 E0= -.19197825E+03  d E =0.248185E-02
       N       E                     dE             d eps       ncg     rms          rms(c)
DAV:   1    -0.192052724333E+03    0.27084E-02   -0.27944E-01  8160   0.115E+00    0.158E-01
DAV:   2    -0.192053244159E+03   -0.51983E-03   -0.75292E-03 11200   0.333E-01    0.219E-01
DAV:   3    -0.192053116911E+03    0.12725E-03   -0.20400E-03 12280   0.366E-01    0.208E-01
DAV:   4    -0.192052764045E+03    0.35287E-03   -0.88986E-04  9840   0.223E-01    0.101E-01
DAV:   5    -0.192052706561E+03    0.57484E-04   -0.42980E-04  8760   0.156E-01
  65 F= -.19205271E+03 E0= -.19197603E+03  d E =0.274809E-02
       N       E                     dE             d eps       ncg     rms          rms(c)
DAV:   1    -0.192051514137E+03    0.12499E-02   -0.12719E-01  8160   0.786E-01    0.112E-01
DAV:   2    -0.192052088714E+03   -0.57458E-03   -0.41093E-03 11200   0.299E-01    0.223E-01
DAV:   3    -0.192051605771E+03    0.48294E-03   -0.11757E-03 10160   0.291E-01    0.990E-02
DAV:   4    -0.192051618543E+03   -0.12772E-04   -0.34158E-04  8080   0.146E-01
  66 F= -.19205162E+03 E0= -.19197476E+03  d E =0.108802E-02
       N       E                     dE             d eps       ncg     rms          rms(c)
DAV:   1    -0.192052931710E+03   -0.13259E-02   -0.15594E-01  8160   0.860E-01    0.999E-02
DAV:   2    -0.192053618966E+03   -0.68726E-03   -0.55758E-03 11000   0.283E-01    0.198E-01
DAV:   3    -0.192053258623E+03    0.36034E-03   -0.11933E-03 10080   0.268E-01    0.109E-01
DAV:   4    -0.192053183486E+03    0.75137E-04   -0.32924E-04  7920   0.138E-01
  67 F= -.19205318E+03 E0= -.19197639E+03  d E =-.156494E-02
       N       E                     dE             d eps       ncg     rms          rms(c)
DAV:   1    -0.192053565014E+03   -0.30639E-03   -0.15803E-02  8160   0.299E-01    0.682E-02
DAV:   2    -0.192054072186E+03   -0.50717E-03   -0.13981E-03 11960   0.267E-01    0.216E-01
DAV:   3    -0.192053520911E+03    0.55128E-03   -0.71786E-04  9240   0.236E-01    0.461E-02
DAV:   4    -0.192053543245E+03   -0.22334E-04   -0.10804E-04  5680   0.799E-02
  68 F= -.19205354E+03 E0= -.19197670E+03  d E =-.359759E-03
       N       E                     dE             d eps       ncg     rms          rms(c)
DAV:   1    -0.192054151423E+03   -0.63051E-03   -0.34556E-02  8160   0.401E-01    0.624E-02
DAV:   2    -0.192054331603E+03   -0.18018E-03   -0.15200E-03 11040   0.159E-01    0.120E-01
DAV:   3    -0.192054195563E+03    0.13604E-03   -0.41125E-04  8680   0.164E-01    0.681E-02
DAV:   4    -0.192054166635E+03    0.28929E-04   -0.12700E-04  5640   0.876E-02
  69 F= -.19205417E+03 E0= -.19197740E+03  d E =-.623389E-03
       N       E                     dE             d eps       ncg     rms          rms(c)
DAV:   1    -0.192055039342E+03   -0.84378E-03   -0.40381E-02  8160   0.438E-01    0.635E-02
DAV:   2    -0.192055371273E+03   -0.33193E-03   -0.16092E-03 11400   0.215E-01    0.159E-01
DAV:   3    -0.192055071116E+03    0.30016E-03   -0.48564E-04  9000   0.190E-01    0.446E-02
DAV:   4    -0.192055089064E+03   -0.17948E-04   -0.87814E-05  5520   0.782E-02
  70 F= -.19205509E+03 E0= -.19197819E+03  d E =-.922430E-03
       N       E                     dE             d eps       ncg     rms          rms(c)
DAV:   1    -0.192053835467E+03    0.12356E-02   -0.65137E-02  8160   0.552E-01    0.716E-02
DAV:   2    -0.192054668854E+03   -0.83339E-03   -0.29688E-03 11160   0.309E-01    0.268E-01
DAV:   3    -0.192053930210E+03    0.73864E-03   -0.10752E-03 10080   0.263E-01    0.396E-02
DAV:   4    -0.192053954660E+03   -0.24450E-04   -0.69043E-05  5600   0.739E-02
  71 F= -.19205395E+03 E0= -.19197735E+03  d E =0.113440E-02
       N       E                     dE             d eps       ncg     rms          rms(c)
DAV:   1    -0.192055662009E+03   -0.17318E-02   -0.16669E-01  8160   0.882E-01    0.112E-01
DAV:   2    -0.192056310761E+03   -0.64875E-03   -0.63516E-03 10720   0.339E-01    0.210E-01
DAV:   3    -0.192055951113E+03    0.35965E-03   -0.12980E-03 11040   0.286E-01    0.115E-01
DAV:   4    -0.192055878293E+03    0.72820E-04   -0.41015E-04  8280   0.158E-01
  72 F= -.19205588E+03 E0= -.19197948E+03  d E =-.192363E-02
       N       E                     dE             d eps       ncg     rms          rms(c)
DAV:   1    -0.192056149368E+03   -0.19825E-03   -0.55673E-03  8360   0.220E-01    0.687E-02
DAV:   2    -0.192056656531E+03   -0.50716E-03   -0.10509E-03 10920   0.273E-01    0.209E-01
DAV:   3    -0.192056086634E+03    0.56990E-03   -0.63920E-04  9280   0.241E-01    0.417E-02
DAV:   4    -0.192056115028E+03   -0.28394E-04   -0.92423E-05  5440   0.763E-02
  73 F= -.19205612E+03 E0= -.19197974E+03  d E =-.236735E-03
       N       E                     dE             d eps       ncg     rms          rms(c)
DAV:   1    -0.192056524766E+03   -0.43813E-03   -0.94472E-03  8160   0.218E-01    0.447E-02
DAV:   2    -0.192056770312E+03   -0.24555E-03   -0.70130E-04 11120   0.179E-01    0.153E-01
DAV:   3    -0.192056513338E+03    0.25697E-03   -0.35012E-04  8440   0.161E-01    0.320E-02
DAV:   4    -0.192056518282E+03   -0.49442E-05   -0.44010E-05  5480   0.411E-02
  74 F= -.19205652E+03 E0= -.19198000E+03  d E =-.403254E-03
       N       E                     dE             d eps       ncg     rms          rms(c)
DAV:   1    -0.192057584139E+03   -0.10708E-02   -0.39342E-02  8160   0.431E-01    0.584E-02
DAV:   2    -0.192057760514E+03   -0.17638E-03   -0.13309E-03 12160   0.162E-01    0.113E-01
DAV:   3    -0.192057626062E+03    0.13445E-03   -0.36147E-04  8720   0.159E-01    0.545E-02
DAV:   4    -0.192057627514E+03   -0.14523E-05   -0.96876E-05  5520   0.818E-02
  75 F= -.19205763E+03 E0= -.19198107E+03  d E =-.110923E-02
       N       E                     dE             d eps       ncg     rms          rms(c)
DAV:   1    -0.192054955930E+03    0.26701E-02   -0.20902E-01  8160   0.995E-01    0.112E-01
DAV:   2    -0.192055565060E+03   -0.60913E-03   -0.66281E-03 10880   0.277E-01    0.171E-01
DAV:   3    -0.192055381540E+03    0.18352E-03   -0.11763E-03 10840   0.279E-01    0.126E-01
DAV:   4    -0.192055281897E+03    0.99643E-04   -0.39936E-04  8280   0.160E-01
  76 F= -.19205528E+03 E0= -.19197932E+03  d E =0.234562E-02
       N       E                     dE             d eps       ncg     rms          rms(c)
DAV:   1    -0.192054523600E+03    0.85794E-03   -0.46117E-02  8160   0.476E-01    0.831E-02
DAV:   2    -0.192054665813E+03   -0.14221E-03   -0.16465E-03 11240   0.180E-01    0.123E-01
DAV:   3    -0.192054526979E+03    0.13883E-03   -0.58922E-04 10720   0.205E-01    0.828E-02
DAV:   4    -0.192054478835E+03    0.48144E-04   -0.19462E-04  6400   0.107E-01
  77 F= -.19205448E+03 E0= -.19197846E+03  d E =0.803062E-03
       N       E                     dE             d eps       ncg     rms          rms(c)
DAV:   1    -0.192056262557E+03   -0.17356E-02   -0.14264E-01  8160   0.821E-01    0.108E-01
DAV:   2    -0.192056858405E+03   -0.59585E-03   -0.47806E-03 10920   0.322E-01    0.207E-01
DAV:   3    -0.192056395070E+03    0.46334E-03   -0.10336E-03 10120   0.281E-01    0.832E-02
DAV:   4    -0.192056354436E+03    0.40634E-04   -0.26904E-04  7520   0.124E-01
  78 F= -.19205635E+03 E0= -.19198005E+03  d E =-.187560E-02
       N       E                     dE             d eps       ncg     rms          rms(c)
DAV:   1    -0.192054602104E+03    0.17930E-02   -0.11000E-01  8160   0.730E-01    0.888E-02
DAV:   2    -0.192055162703E+03   -0.56060E-03   -0.37340E-03 11000   0.281E-01    0.193E-01
DAV:   3    -0.192054736700E+03    0.42600E-03   -0.95287E-04 10040   0.260E-01    0.705E-02
DAV:   4    -0.192054764360E+03   -0.27659E-04   -0.21049E-04  6920   0.123E-01
  79 F= -.19205476E+03 E0= -.19197888E+03  d E =0.159008E-02
       N       E                     dE             d eps       ncg     rms          rms(c)
DAV:   1    -0.192054102641E+03    0.63406E-03   -0.37949E-02  8160   0.434E-01    0.635E-02
DAV:   2    -0.192054190814E+03   -0.88173E-04   -0.10593E-03 12400   0.138E-01    0.943E-02
DAV:   3    -0.192054142177E+03    0.48637E-04   -0.32565E-04  9600   0.148E-01
  80 F= -.19205414E+03 E0= -.19197848E+03  d E =0.622183E-03
