<?xml version="1.0" encoding="ISO-8859-1"?>
<modeling>
 <generator>
  <i name="program" type="string">vasp </i>
  <i name="version" type="string">5.4.1  </i>
  <i name="subversion" type="string">05Feb16 (build Jul 05 2020 17:13:04) complex                          parallel </i>
  <i name="platform" type="string">IFC91_ompi </i>
  <i name="date" type="string">2024 04 20 </i>
  <i name="time" type="string">04:34:22 </i>
 </generator>
 <incar>
  <i type="int" name="ISTART">     0</i>
  <i type="string" name="PREC">normal</i>
  <i type="string" name="ALGO"> Normal</i>
  <i type="int" name="ISPIN">     1</i>
  <i type="int" name="ICHARG">     2</i>
  <i type="int" name="IBRION">     1</i>
  <i type="int" name="NSW">   100</i>
  <i type="int" name="ISIF">     3</i>
  <i type="int" name="ISYM">     0</i>
  <i name="SYMPREC">      0.00000001</i>
  <i name="POTIM">      0.50000000</i>
  <i type="logical" name="LREAL"> F  </i>
  <i type="logical" name="LPLANE"> F  </i>
  <i type="int" name="ISMEAR">     0</i>
  <i type="logical" name="LWAVE"> F  </i>
  <i type="logical" name="LCHARG"> F  </i>
  <v type="int" name="KPOINT_BSE">    -1     0     0     0</v>
 </incar>
 <kpoints>
  <generation param="Gamma">
   <v type="int" name="divisions">       8        8        1 </v>
   <v name="usershift">      0.00000000       0.00000000       0.00000000 </v>
   <v name="genvec1">      0.12500000       0.00000000       0.00000000 </v>
   <v name="genvec2">     -0.00000000       0.12500000       0.00000000 </v>
   <v name="genvec3">      0.00000000       0.00000000       1.00000000 </v>
   <v name="shift">      0.00000000       0.00000000       0.00000000 </v>
  </generation>
  <varray name="kpointlist" >
   <v>       0.00000000       0.00000000       0.00000000 </v>
   <v>       0.12500000       0.00000000       0.00000000 </v>
   <v>       0.25000000       0.00000000       0.00000000 </v>
   <v>       0.37500000       0.00000000       0.00000000 </v>
   <v>       0.50000000       0.00000000       0.00000000 </v>
   <v>       0.00000000       0.12500000       0.00000000 </v>
   <v>       0.12500000       0.12500000       0.00000000 </v>
   <v>       0.25000000       0.12500000       0.00000000 </v>
   <v>       0.37500000       0.12500000       0.00000000 </v>
   <v>       0.50000000       0.12500000       0.00000000 </v>
   <v>      -0.37500000       0.12500000       0.00000000 </v>
   <v>      -0.25000000       0.12500000       0.00000000 </v>
   <v>      -0.12500000       0.12500000       0.00000000 </v>
   <v>       0.00000000       0.25000000       0.00000000 </v>
   <v>       0.12500000       0.25000000       0.00000000 </v>
   <v>       0.25000000       0.25000000       0.00000000 </v>
   <v>       0.37500000       0.25000000       0.00000000 </v>
   <v>       0.50000000       0.25000000       0.00000000 </v>
   <v>      -0.37500000       0.25000000       0.00000000 </v>
   <v>      -0.25000000       0.25000000       0.00000000 </v>
   <v>      -0.12500000       0.25000000       0.00000000 </v>
   <v>      -0.00000000       0.37500000       0.00000000 </v>
   <v>       0.12500000       0.37500000       0.00000000 </v>
   <v>       0.25000000       0.37500000       0.00000000 </v>
   <v>       0.37500000       0.37500000       0.00000000 </v>
   <v>       0.50000000       0.37500000       0.00000000 </v>
   <v>      -0.37500000       0.37500000       0.00000000 </v>
   <v>      -0.25000000       0.37500000       0.00000000 </v>
   <v>      -0.12500000       0.37500000       0.00000000 </v>
   <v>       0.00000000       0.50000000       0.00000000 </v>
   <v>       0.12500000       0.50000000       0.00000000 </v>
   <v>       0.25000000       0.50000000       0.00000000 </v>
   <v>       0.37500000       0.50000000       0.00000000 </v>
   <v>       0.50000000       0.50000000       0.00000000 </v>
  </varray>
  <varray name="weights" >
   <v>       0.01562500 </v>
   <v>       0.03125000 </v>
   <v>       0.03125000 </v>
   <v>       0.03125000 </v>
   <v>       0.01562500 </v>
   <v>       0.03125000 </v>
   <v>       0.03125000 </v>
   <v>       0.03125000 </v>
   <v>       0.03125000 </v>
   <v>       0.03125000 </v>
   <v>       0.03125000 </v>
   <v>       0.03125000 </v>
   <v>       0.03125000 </v>
   <v>       0.03125000 </v>
   <v>       0.03125000 </v>
   <v>       0.03125000 </v>
   <v>       0.03125000 </v>
   <v>       0.03125000 </v>
   <v>       0.03125000 </v>
   <v>       0.03125000 </v>
   <v>       0.03125000 </v>
   <v>       0.03125000 </v>
   <v>       0.03125000 </v>
   <v>       0.03125000 </v>
   <v>       0.03125000 </v>
   <v>       0.03125000 </v>
   <v>       0.03125000 </v>
   <v>       0.03125000 </v>
   <v>       0.03125000 </v>
   <v>       0.01562500 </v>
   <v>       0.03125000 </v>
   <v>       0.03125000 </v>
   <v>       0.03125000 </v>
   <v>       0.01562500 </v>
  </varray>
 </kpoints>
 <parameters>
  <separator name="general" >
   <i type="string" name="SYSTEM">unknown system</i>
   <i type="logical" name="LCOMPAT"> F  </i>
  </separator>
  <separator name="electronic" >
   <i type="string" name="PREC">normal</i>
   <i name="ENMAX">    280.00000000</i>
   <i name="ENAUG">    373.43800000</i>
   <i name="EDIFF">      0.00010000</i>
   <i type="int" name="IALGO">    38</i>
   <i type="int" name="IWAVPR">    11</i>
   <i type="int" name="NBANDS">   120</i>
   <i name="NELECT">    159.00000000</i>
   <i type="int" name="TURBO">     0</i>
   <i type="int" name="IRESTART">     0</i>
   <i type="int" name="NREBOOT">     0</i>
   <i type="int" name="NMIN">     0</i>
   <i name="EREF">      0.00000000</i>
   <separator name="electronic smearing" >
    <i type="int" name="ISMEAR">     0</i>
    <i name="SIGMA">      0.20000000</i>
    <i name="KSPACING">      0.50000000</i>
    <i type="logical" name="KGAMMA"> T  </i>
   </separator>
   <separator name="electronic projectors" >
    <i type="logical" name="LREAL"> F  </i>
    <v name="ROPT">      0.00000000      0.00000000      0.00000000      0.00000000</v>
    <i type="int" name="LMAXPAW">  -100</i>
    <i type="int" name="LMAXMIX">     2</i>
    <i type="logical" name="NLSPLINE"> F  </i>
   </separator>
   <separator name="electronic startup" >
    <i type="int" name="ISTART">     0</i>
    <i type="int" name="ICHARG">     2</i>
    <i type="int" name="INIWAV">     1</i>
   </separator>
   <separator name="electronic spin" >
    <i type="int" name="ISPIN">     1</i>
    <i type="logical" name="LNONCOLLINEAR"> F  </i>
    <v name="MAGMOM">      1.00000000      1.00000000      1.00000000      1.00000000      1.00000000      1.00000000      1.00000000      1.00000000      1.00000000      1.00000000      1.00000000      1.00000000      1.00000000      1.00000000      1.00000000      1.00000000      1.00000000      1.00000000      1.00000000      1.00000000
      1.00000000      1.00000000      1.00000000      1.00000000      1.00000000      1.00000000      1.00000000</v>
    <i name="NUPDOWN">     -1.00000000</i>
    <i type="logical" name="LSORBIT"> F  </i>
    <v name="SAXIS">      0.00000000      0.00000000      1.00000000</v>
    <i type="logical" name="LSPIRAL"> F  </i>
    <v name="QSPIRAL">      0.00000000      0.00000000      0.00000000</v>
    <i type="logical" name="LZEROZ"> F  </i>
   </separator>
   <separator name="electronic exchange-correlation" >
    <i type="logical" name="LASPH"> F  </i>
    <i type="logical" name="LMETAGGA"> F  </i>
   </separator>
   <separator name="electronic convergence" >
    <i type="int" name="NELM">    60</i>
    <i type="int" name="NELMDL">    -5</i>
    <i type="int" name="NELMIN">     2</i>
    <i name="ENINI">    280.00000000</i>
    <separator name="electronic convergence detail" >
     <i type="logical" name="LDIAG"> T  </i>
     <i type="logical" name="LSUBROT"> F  </i>
     <i name="WEIMIN">      0.00100000</i>
     <i name="EBREAK">      0.00000021</i>
     <i name="DEPER">      0.30000000</i>
     <i type="int" name="NRMM">     4</i>
     <i name="TIME">      0.40000000</i>
    </separator>
   </separator>
   <separator name="electronic mixer" >
    <i name="AMIX">      0.40000000</i>
    <i name="BMIX">      1.00000000</i>
    <i name="AMIN">      0.10000000</i>
    <i name="AMIX_MAG">      1.60000000</i>
    <i name="BMIX_MAG">      1.00000000</i>
    <separator name="electronic mixer details" >
     <i type="int" name="IMIX">     4</i>
     <i type="logical" name="MIXFIRST"> F  </i>
     <i type="int" name="MAXMIX">   -45</i>
     <i name="WC">    100.00000000</i>
     <i type="int" name="INIMIX">     1</i>
     <i type="int" name="MIXPRE">     1</i>
     <i type="int" name="MREMOVE">     5</i>
    </separator>
   </separator>
   <separator name="electronic dipolcorrection" >
    <i type="logical" name="LDIPOL"> F  </i>
    <i type="logical" name="LMONO"> F  </i>
    <i type="int" name="IDIPOL">     0</i>
    <i name="EPSILON">      1.00000000</i>
    <v name="DIPOL">   -100.00000000   -100.00000000   -100.00000000</v>
    <i name="EFIELD">      0.00000000</i>
   </separator>
  </separator>
  <separator name="grids" >
   <i type="int" name="NGX">    42</i>
   <i type="int" name="NGY">    42</i>
   <i type="int" name="NGZ">   126</i>
   <i type="int" name="NGXF">    84</i>
   <i type="int" name="NGYF">    84</i>
   <i type="int" name="NGZF">   252</i>
   <i type="logical" name="ADDGRID"> F  </i>
  </separator>
  <separator name="ionic" >
   <i type="int" name="NSW">   100</i>
   <i type="int" name="IBRION">     1</i>
   <i type="int" name="ISIF">     3</i>
   <i name="PSTRESS">      0.00000000</i>
   <i name="EDIFFG">      0.00100000</i>
   <i type="int" name="NFREE">     0</i>
   <i name="POTIM">      0.50000000</i>
   <i name="SMASS">     -3.00000000</i>
   <i name="SCALEE">      1.00000000</i>
  </separator>
  <separator name="ionic md" >
   <i name="TEBEG">      0.00010000</i>
   <i name="TEEND">      0.00010000</i>
   <i type="int" name="NBLOCK">     1</i>
   <i type="int" name="KBLOCK">   100</i>
   <i type="int" name="NPACO">   256</i>
   <i name="APACO">     16.00000000</i>
  </separator>
  <separator name="symmetry" >
   <i type="int" name="ISYM">     0</i>
   <i name="SYMPREC">      0.00000001</i>
  </separator>
  <separator name="dos" >
   <i type="logical" name="LORBIT"> F  </i>
   <v name="RWIGS">     -1.00000000     -1.00000000     -1.00000000     -1.00000000</v>
   <i type="int" name="NEDOS">   301</i>
   <i name="EMIN">     10.00000000</i>
   <i name="EMAX">    -10.00000000</i>
   <i name="EFERMI">      0.00000000</i>
  </separator>
  <separator name="writing" >
   <i type="int" name="NWRITE">     2</i>
   <i type="logical" name="LWAVE"> F  </i>
   <i type="logical" name="LCHARG"> F  </i>
   <i type="logical" name="LPARD"> F  </i>
   <i type="logical" name="LVTOT"> F  </i>
   <i type="logical" name="LVHAR"> F  </i>
   <i type="logical" name="LELF"> F  </i>
   <i type="logical" name="LOPTICS"> F  </i>
   <v name="STM">      0.00000000      0.00000000      0.00000000      0.00000000      0.00000000      0.00000000      0.00000000</v>
  </separator>
  <separator name="performance" >
   <i type="int" name="NPAR">    40</i>
   <i type="int" name="NSIM">     4</i>
   <i type="int" name="NBLK">    -1</i>
   <i type="logical" name="LPLANE"> F  </i>
   <i type="logical" name="LSCALAPACK"> T  </i>
   <i type="logical" name="LSCAAWARE"> F  </i>
   <i type="logical" name="LSCALU"> F  </i>
   <i type="logical" name="LASYNC"> F  </i>
   <i type="logical" name="LORBITALREAL"> F  </i>
  </separator>
  <separator name="miscellaneous" >
   <i type="int" name="IDIOT">     3</i>
   <i type="logical" name="LMUSIC"> F  </i>
   <v name="POMASS">     50.94100000     95.94000000    183.85000000     32.06600000</v>
   <v name="DARWINR">      0.00000000      0.00000000      0.00000000      0.00000000</v>
   <v name="DARWINV">      1.00000000      1.00000000      1.00000000      1.00000000</v>
   <i type="logical" name="LCORR"> T  </i>
  </separator>
  <i type="logical" name="GGA_COMPAT"> T  </i>
  <i type="logical" name="LBERRY"> F  </i>
  <i type="int" name="ICORELEVEL">     0</i>
  <i type="logical" name="LDAU"> F  </i>
  <i type="int" name="I_CONSTRAINED_M">     0</i>
  <separator name="electronic exchange-correlation" >
   <i type="string" name="GGA">--</i>
   <i type="int" name="VOSKOWN">     0</i>
   <i type="logical" name="LHFCALC"> F  </i>
   <i type="string" name="PRECFOCK"></i>
   <i type="logical" name="LSYMGRAD"> F  </i>
   <i type="logical" name="LHFONE"> F  </i>
   <i type="logical" name="LRHFCALC"> F  </i>
   <i type="logical" name="LTHOMAS"> F  </i>
   <i type="logical" name="LMODELHF"> F  </i>
   <i name="ENCUT4O">     -1.00000000</i>
   <i type="int" name="EXXOEP">     0</i>
   <i type="int" name="FOURORBIT">     0</i>
   <i name="AEXX">      0.00000000</i>
   <i name="HFALPHA">      0.00000000</i>
   <i name="MCALPHA">      0.00000000</i>
   <i name="ALDAX">      1.00000000</i>
   <i name="AGGAX">      1.00000000</i>
   <i name="ALDAC">      1.00000000</i>
   <i name="AGGAC">      1.00000000</i>
   <i type="int" name="NKREDX">     1</i>
   <i type="int" name="NKREDY">     1</i>
   <i type="int" name="NKREDZ">     1</i>
   <i type="logical" name="SHIFTRED"> F  </i>
   <i type="logical" name="ODDONLY"> F  </i>
   <i type="logical" name="EVENONLY"> F  </i>
   <i type="int" name="LMAXFOCK">     0</i>
   <i type="int" name="NMAXFOCKAE">     0</i>
   <i type="logical" name="LFOCKAEDFT"> F  </i>
   <i name="HFSCREEN">      0.00000000</i>
   <i name="HFSCREENC">      0.00000000</i>
   <i type="int" name="NBANDSGWLOW">     0</i>
  </separator>
  <separator name="vdW DFT" >
   <i type="logical" name="LUSE_VDW"> F  </i>
   <i name="Zab_VDW">     -0.84910000</i>
   <i name="PARAM1">      0.12340000</i>
   <i name="PARAM2">      1.00000000</i>
   <i name="PARAM3">      0.00000000</i>
  </separator>
  <separator name="model GW" >
   <i type="int" name="MODEL_GW">     0</i>
   <i name="MODEL_EPS0">     58.26239943</i>
   <i name="MODEL_ALPHA">      1.00000000</i>
  </separator>
  <separator name="linear response parameters" >
   <i type="logical" name="LEPSILON"> F  </i>
   <i type="logical" name="LRPA"> F  </i>
   <i type="logical" name="LNABLA"> F  </i>
   <i type="logical" name="LVEL"> F  </i>
   <i type="int" name="KINTER">     0</i>
   <i name="CSHIFT">      0.10000000</i>
   <i name="OMEGAMAX">     -1.00000000</i>
   <i name="DEG_THRESHOLD">      0.00200000</i>
  </separator>
  <separator name="orbital magnetization" >
   <i type="logical" name="NUCIND"> F  </i>
   <v name="MAGPOS">      0.00000000      0.00000000      0.00000000</v>
   <i type="logical" name="LNICSALL"> T  </i>
   <i type="logical" name="ORBITALMAG"> F  </i>
   <i type="logical" name="LMAGBLOCH"> F  </i>
   <i type="logical" name="LCHIMAG"> F  </i>
   <i type="logical" name="LGAUGE"> T  </i>
   <i type="int" name="MAGATOM">     0</i>
   <v name="MAGDIPOL">      0.00000000      0.00000000      0.00000000</v>
   <v name="AVECCONST">      0.00000000      0.00000000      0.00000000</v>
  </separator>
  <separator name="response functions" >
   <i type="logical" name="LADDER"> F  </i>
   <i type="logical" name="LFXC"> F  </i>
   <i type="logical" name="LHARTREE"> T  </i>
   <i type="int" name="IBSE">     0</i>
   <v type="int" name="KPOINT">    -1     0     0     0</v>
   <i type="logical" name="LTCTE"> F  </i>
   <i type="logical" name="LTETE"> F  </i>
   <i type="logical" name="LTRIPLET"> F  </i>
   <i type="logical" name="LFXCEPS"> F  </i>
   <i type="logical" name="LFXHEG"> F  </i>
   <i type="int" name="NATURALO">     0</i>
   <i type="logical" name="L2ORDER"> F  </i>
   <i type="logical" name="LUSEW"> F  </i>
   <i name="ENCUTGW">     -2.00000000</i>
   <i name="ENCUTGWSOFT">     -2.00000000</i>
   <i name="ENCUTLF">     -1.00000000</i>
   <i type="int" name="LMAXMP2">    -1</i>
   <i name="SCISSOR">      0.00000000</i>
   <i type="int" name="NOMEGA">     0</i>
   <i type="int" name="NOMEGAR">     0</i>
   <i type="int" name="NBANDSGW">    -1</i>
   <i type="int" name="NBANDSO">    -1</i>
   <i type="int" name="NBANDSV">    -1</i>
   <i type="int" name="NELM">     1</i>
   <i type="int" name="NELMHF">     1</i>
   <i type="int" name="DIM">     3</i>
   <i type="int" name="ANTIRES">     0</i>
   <i name="OMEGAMAX">    -30.00000000</i>
   <i name="OMEGAMIN">    -30.00000000</i>
   <i name="OMEGATL">   -200.00000000</i>
   <i type="int" name="OMEGAGRID">     0</i>
   <i name="CSHIFT">     -0.10000000</i>
   <i type="logical" name="SELFENERGY"> F  </i>
   <i type="logical" name="LSPECTRAL"> F  </i>
   <i type="logical" name="LSPECTRALGW"> F  </i>
   <i type="logical" name="LSINGLES"> F  </i>
   <i type="logical" name="LFERMIGW"> F  </i>
   <i type="logical" name="ODDONLYGW"> F  </i>
   <i type="logical" name="EVENONLYGW"> F  </i>
   <i type="int" name="NKREDLFX">     1</i>
   <i type="int" name="NKREDLFY">     1</i>
   <i type="int" name="NKREDLFZ">     1</i>
   <i type="int" name="MAXMEM">  1800</i>
   <i type="int" name="TELESCOPE">     0</i>
   <i type="int" name="TAUPAR">     1</i>
   <i type="int" name="OMEGAPAR">    -1</i>
   <i name="LAMBDA">      1.00000000</i>
  </separator>
  <separator name="External order field" >
   <i name="OFIELD_KAPPA">      0.00000000</i>
   <v name="OFIELD_K">      0.00000000      0.00000000      0.00000000</v>
   <i name="OFIELD_Q6_NEAR">      0.00000000</i>
   <i name="OFIELD_Q6_FAR">      0.00000000</i>
   <i name="OFIELD_A">      0.00000000</i>
  </separator>
 </parameters>
 <atominfo>
  <atoms>      27 </atoms>
  <types>       4 </types>
  <array name="atoms" >
   <dimension dim="1">ion</dimension>
   <field type="string">element</field>
   <field type="int">atomtype</field>
   <set>
    <rc><c>V </c><c>   1</c></rc>
    <rc><c>V </c><c>   1</c></rc>
    <rc><c>V </c><c>   1</c></rc>
    <rc><c>Mo</c><c>   2</c></rc>
    <rc><c>Mo</c><c>   2</c></rc>
    <rc><c>Mo</c><c>   2</c></rc>
    <rc><c>W </c><c>   3</c></rc>
    <rc><c>W </c><c>   3</c></rc>
    <rc><c>W </c><c>   3</c></rc>
    <rc><c>S </c><c>   4</c></rc>
    <rc><c>S </c><c>   4</c></rc>
    <rc><c>S </c><c>   4</c></rc>
    <rc><c>S </c><c>   4</c></rc>
    <rc><c>S </c><c>   4</c></rc>
    <rc><c>S </c><c>   4</c></rc>
    <rc><c>S </c><c>   4</c></rc>
    <rc><c>S </c><c>   4</c></rc>
    <rc><c>S </c><c>   4</c></rc>
    <rc><c>S </c><c>   4</c></rc>
    <rc><c>S </c><c>   4</c></rc>
    <rc><c>S </c><c>   4</c></rc>
    <rc><c>S </c><c>   4</c></rc>
    <rc><c>S </c><c>   4</c></rc>
    <rc><c>S </c><c>   4</c></rc>
    <rc><c>S </c><c>   4</c></rc>
    <rc><c>S </c><c>   4</c></rc>
    <rc><c>S </c><c>   4</c></rc>
   </set>
  </array>
  <array name="atomtypes" >
   <dimension dim="1">type</dimension>
   <field type="int">atomspertype</field>
   <field type="string">element</field>
   <field>mass</field>
   <field>valence</field>
   <field type="string">pseudopotential</field>
   <set>
    <rc><c>   3</c><c>V </c><c>     50.94100000</c><c>      5.00000000</c><c> PAW_PBE V 08Apr2002                    </c></rc>
    <rc><c>   3</c><c>Mo</c><c>     95.94000000</c><c>      6.00000000</c><c> PAW_PBE Mo 08Apr2002                   </c></rc>
    <rc><c>   3</c><c>W </c><c>    183.85000000</c><c>      6.00000000</c><c> PAW_PBE W 08Apr2002                    </c></rc>
    <rc><c>  18</c><c>S </c><c>     32.06600000</c><c>      6.00000000</c><c>  PAW_PBE S 17Jan2003                   </c></rc>
   </set>
  </array>
 </atominfo>
 <structure name="initialpos" >
  <crystal>
   <varray name="basis" >
    <v>       8.66999996       5.03999989       0.00000000 </v>
    <v>      -8.66999982       5.04000013       0.00000000 </v>
    <v>       0.00000000       0.00000000      30.00000000 </v>
   </varray>
   <i name="volume">   2621.80797419 </i>
   <varray name="rec_basis" >
    <v>       0.05767013       0.09920635       0.00000000 </v>
    <v>      -0.05767013       0.09920635       0.00000000 </v>
    <v>       0.00000000       0.00000000       0.03333333 </v>
   </varray>
  </crystal>
  <varray name="positions" >
   <v>       0.33333334       0.66666669       0.00000000 </v>
   <v>       0.00000000       0.00000000       0.00000000 </v>
   <v>       0.33333334       0.33333334       0.00000000 </v>
   <v>       1.00000000       0.33333334       0.00000000 </v>
   <v>       0.33333334       0.00000000       0.00000000 </v>
   <v>       0.66666669       0.00000000       0.00000000 </v>
   <v>       0.00000000       0.66666669       0.00000000 </v>
   <v>       0.66666669       0.33333334       0.00000000 </v>
   <v>       0.66666669       0.66666669       0.00000000 </v>
   <v>       0.11068511       0.22244981       0.95539999 </v>
   <v>       0.22244981       0.11068511       0.04460000 </v>
   <v>       0.11068511       0.55578315       0.95539999 </v>
   <v>       0.22244981       0.44401845       0.04460000 </v>
   <v>       0.11068511       0.88911647       0.95539999 </v>
   <v>       0.22244981       0.77735180       0.04460000 </v>
   <v>       0.44401845       0.22244981       0.95539999 </v>
   <v>       0.55578315       0.11068511       0.04460000 </v>
   <v>       0.44401845       0.55578315       0.95539999 </v>
   <v>       0.55578315       0.44401845       0.04460000 </v>
   <v>       0.44401845       0.88911647       0.95539999 </v>
   <v>       0.55578315       0.77735180       0.04460000 </v>
   <v>       0.77735180       0.22244981       0.95539999 </v>
   <v>       0.88911647       0.11068511       0.04460000 </v>
   <v>       0.77735180       0.55578315       0.95539999 </v>
   <v>       0.88911647       0.44401845       0.04460000 </v>
   <v>       0.77735180       0.88911647       0.95539999 </v>
   <v>       0.88911647       0.77735180       0.04460000 </v>
  </varray>
 </structure>
 <calculation>
  <scstep>
   <time name="dav">   22.84   22.90</time>
   <time name="total">   22.89   22.95</time>
   <energy>
    <i name="alphaZ">     81.65567618 </i>
    <i name="ewald">  41890.23011080 </i>
    <i name="hartreedc"> -47722.87377907 </i>
    <i name="XCdc">   -242.92719030 </i>
    <i name="pawpsdc">   3467.42045192 </i>
    <i name="pawaedc">  -2871.19716117 </i>
    <i name="eentropy">     -0.53176637 </i>
    <i name="bandstr">   -237.29411542 </i>
    <i name="atom">   6761.44252427 </i>
    <i name="e_fr_energy">   1125.92475084 </i>
    <i name="e_wo_entrp">   1126.45651722 </i>
    <i name="e_0_energy">   1126.19063403 </i>
   </energy>
  </scstep>
  <scstep>
   <time name="dav">   29.83   29.90</time>
   <time name="total">   29.83   29.91</time>
   <energy>
    <i name="e_fr_energy">     -2.50346208 </i>
    <i name="e_wo_entrp">     -2.29995564 </i>
    <i name="e_0_energy">     -2.40170886 </i>
   </energy>
  </scstep>
  <scstep>
   <time name="dav">   28.96   29.03</time>
   <time name="total">   28.96   29.04</time>
   <energy>
    <i name="e_fr_energy">   -199.88759961 </i>
    <i name="e_wo_entrp">   -199.61372340 </i>
    <i name="e_0_energy">   -199.75066150 </i>
   </energy>
  </scstep>
  <scstep>
   <time name="dav">   31.86   31.94</time>
   <time name="total">   31.86   31.95</time>
   <energy>
    <i name="e_fr_energy">   -209.00413609 </i>
    <i name="e_wo_entrp">   -208.69572940 </i>
    <i name="e_0_energy">   -208.84993275 </i>
   </energy>
  </scstep>
  <scstep>
   <time name="dav">   30.06   30.13</time>
   <time name="total">   30.52   30.60</time>
   <energy>
    <i name="e_fr_energy">   -209.30908707 </i>
    <i name="e_wo_entrp">   -209.00324779 </i>
    <i name="e_0_energy">   -209.15616743 </i>
   </energy>
  </scstep>
  <scstep>
   <time name="dav">   32.10   32.17</time>
   <time name="total">   32.59   32.68</time>
   <energy>
    <i name="e_fr_energy">   -236.78863540 </i>
    <i name="e_wo_entrp">   -236.50584357 </i>
    <i name="e_0_energy">   -236.64723949 </i>
   </energy>
  </scstep>
  <scstep>
   <time name="dav">   34.07   34.15</time>
   <time name="total">   34.58   34.67</time>
   <energy>
    <i name="e_fr_energy">   -196.51022662 </i>
    <i name="e_wo_entrp">   -196.19825262 </i>
    <i name="e_0_energy">   -196.35423962 </i>
   </energy>
  </scstep>
  <scstep>
   <time name="dav">   31.04   31.11</time>
   <time name="total">   31.55   31.63</time>
   <energy>
    <i name="e_fr_energy">   -189.48344569 </i>
    <i name="e_wo_entrp">   -189.19380677 </i>
    <i name="e_0_energy">   -189.33862623 </i>
   </energy>
  </scstep>
  <scstep>
   <time name="dav">   32.62   32.70</time>
   <time name="total">   33.14   33.23</time>
   <energy>
    <i name="e_fr_energy">   -188.17182732 </i>
    <i name="e_wo_entrp">   -187.83319736 </i>
    <i name="e_0_energy">   -188.00251234 </i>
   </energy>
  </scstep>
  <scstep>
   <time name="dav">   34.51   34.59</time>
   <time name="total">   35.04   35.13</time>
   <energy>
    <i name="e_fr_energy">   -187.03044395 </i>
    <i name="e_wo_entrp">   -186.68401332 </i>
    <i name="e_0_energy">   -186.85722863 </i>
   </energy>
  </scstep>
  <scstep>
   <time name="dav">   31.85   31.93</time>
   <time name="total">   32.39   32.47</time>
   <energy>
    <i name="e_fr_energy">   -186.94335649 </i>
    <i name="e_wo_entrp">   -186.59253264 </i>
    <i name="e_0_energy">   -186.76794456 </i>
   </energy>
  </scstep>
  <scstep>
   <time name="dav">   31.99   32.07</time>
   <time name="total">   32.53   32.62</time>
   <energy>
    <i name="e_fr_energy">   -187.05195997 </i>
    <i name="e_wo_entrp">   -186.71487296 </i>
    <i name="e_0_energy">   -186.88341647 </i>
   </energy>
  </scstep>
  <scstep>
   <time name="dav">   33.15   33.23</time>
   <time name="total">   33.69   33.78</time>
   <energy>
    <i name="e_fr_energy">   -186.87824004 </i>
    <i name="e_wo_entrp">   -186.54012861 </i>
    <i name="e_0_energy">   -186.70918433 </i>
   </energy>
  </scstep>
  <scstep>
   <time name="dav">   33.04   33.12</time>
   <time name="total">   33.58   33.67</time>
   <energy>
    <i name="e_fr_energy">   -186.84296080 </i>
    <i name="e_wo_entrp">   -186.49789980 </i>
    <i name="e_0_energy">   -186.67043030 </i>
   </energy>
  </scstep>
  <scstep>
   <time name="dav">   31.92   32.00</time>
   <time name="total">   32.46   32.55</time>
   <energy>
    <i name="e_fr_energy">   -186.83888768 </i>
    <i name="e_wo_entrp">   -186.49192563 </i>
    <i name="e_0_energy">   -186.66540666 </i>
   </energy>
  </scstep>
  <scstep>
   <time name="dav">   33.19   33.27</time>
   <time name="total">   33.73   33.82</time>
   <energy>
    <i name="e_fr_energy">   -186.82872483 </i>
    <i name="e_wo_entrp">   -186.48175770 </i>
    <i name="e_0_energy">   -186.65524127 </i>
   </energy>
  </scstep>
  <scstep>
   <time name="dav">   32.70   32.78</time>
   <time name="total">   33.24   33.33</time>
   <energy>
    <i name="e_fr_energy">   -186.82663767 </i>
    <i name="e_wo_entrp">   -186.48165070 </i>
    <i name="e_0_energy">   -186.65414418 </i>
   </energy>
  </scstep>
  <scstep>
   <time name="dav">   30.85   30.92</time>
   <time name="total">   31.39   31.47</time>
   <energy>
    <i name="e_fr_energy">   -186.82626120 </i>
    <i name="e_wo_entrp">   -186.48119062 </i>
    <i name="e_0_energy">   -186.65372591 </i>
   </energy>
  </scstep>
  <scstep>
   <time name="dav">   27.15   27.21</time>
   <time name="total">   27.69   27.76</time>
   <energy>
    <i name="e_fr_energy">   -186.82585034 </i>
    <i name="e_wo_entrp">   -186.48035941 </i>
    <i name="e_0_energy">   -186.65310488 </i>
   </energy>
  </scstep>
  <scstep>
   <time name="dav">   25.02   25.08</time>
   <time name="total">   25.56   25.62</time>
   <energy>
    <i name="e_fr_energy">   -186.82654429 </i>
    <i name="e_wo_entrp">   -186.48115268 </i>
    <i name="e_0_energy">   -186.65384848 </i>
   </energy>
  </scstep>
  <scstep>
   <time name="dav">   22.85   22.90</time>
   <time name="total">   23.39   23.45</time>
   <energy>
    <i name="e_fr_energy">   -186.82714456 </i>
    <i name="e_wo_entrp">   -186.48198064 </i>
    <i name="e_0_energy">   -186.65456260 </i>
   </energy>
  </scstep>
  <scstep>
   <time name="dav">   21.59   21.65</time>
   <time name="total">   22.13   22.19</time>
   <energy>
    <i name="e_fr_energy">   -186.82829456 </i>
    <i name="e_wo_entrp">   -186.48297579 </i>
    <i name="e_0_energy">   -186.65563518 </i>
   </energy>
  </scstep>
  <scstep>
   <time name="dav">   21.36   21.41</time>
   <time name="total">   21.89   21.95</time>
   <energy>
    <i name="e_fr_energy">   -186.82956421 </i>
    <i name="e_wo_entrp">   -186.48434662 </i>
    <i name="e_0_energy">   -186.65695541 </i>
   </energy>
  </scstep>
  <scstep>
   <time name="dav">   19.86   19.91</time>
   <time name="total">   20.40   20.46</time>
   <energy>
    <i name="e_fr_energy">   -186.83015670 </i>
    <i name="e_wo_entrp">   -186.48493395 </i>
    <i name="e_0_energy">   -186.65754533 </i>
   </energy>
  </scstep>
  <scstep>
   <time name="dav">   17.30   17.34</time>
   <time name="total">   17.84   17.89</time>
   <energy>
    <i name="e_fr_energy">   -186.83054594 </i>
    <i name="e_wo_entrp">   -186.48527472 </i>
    <i name="e_0_energy">   -186.65791033 </i>
   </energy>
  </scstep>
  <scstep>
   <time name="dav">   20.15   20.20</time>
   <time name="total">   20.69   20.75</time>
   <energy>
    <i name="e_fr_energy">   -186.83075875 </i>
    <i name="e_wo_entrp">   -186.48550432 </i>
    <i name="e_0_energy">   -186.65813154 </i>
   </energy>
  </scstep>
  <scstep>
   <time name="dav">   20.32   20.37</time>
   <time name="total">   20.86   20.92</time>
   <energy>
    <i name="e_fr_energy">   -186.83086393 </i>
    <i name="e_wo_entrp">   -186.48561146 </i>
    <i name="e_0_energy">   -186.65823770 </i>
   </energy>
  </scstep>
  <scstep>
   <time name="dav">   21.22   21.27</time>
   <time name="total">   21.25   21.31</time>
   <energy>
    <i name="alphaZ">     81.65567618 </i>
    <i name="ewald">  41890.23011080 </i>
    <i name="hartreedc"> -47832.87339905 </i>
    <i name="XCdc">   -231.61161391 </i>
    <i name="pawpsdc">   4192.03052293 </i>
    <i name="pawaedc">  -3610.03293229 </i>
    <i name="eentropy">     -0.34525121 </i>
    <i name="bandstr">  -1437.32654694 </i>
    <i name="atom">   6761.44252427 </i>
    <i name="e_fr_energy">   -186.83090922 </i>
    <i name="e_wo_entrp">   -186.48565801 </i>
    <i name="e_0_energy">   -186.65828361 </i>
   </energy>
  </scstep>
  <structure>
   <crystal>
    <varray name="basis" >
     <v>       8.66999996       5.03999989       0.00000000 </v>
     <v>      -8.66999982       5.04000013       0.00000000 </v>
     <v>       0.00000000       0.00000000      30.00000000 </v>
    </varray>
    <i name="volume">   2621.80797419 </i>
    <varray name="rec_basis" >
     <v>       0.05767013       0.09920635       0.00000000 </v>
     <v>      -0.05767013       0.09920635       0.00000000 </v>
     <v>       0.00000000       0.00000000       0.03333333 </v>
    </varray>
   </crystal>
   <varray name="positions" >
    <v>       0.33333334       0.66666669       0.00000000 </v>
    <v>       0.00000000       0.00000000       0.00000000 </v>
    <v>       0.33333334       0.33333334       0.00000000 </v>
    <v>       1.00000000       0.33333334       0.00000000 </v>
    <v>       0.33333334       0.00000000       0.00000000 </v>
    <v>       0.66666669       0.00000000       0.00000000 </v>
    <v>       0.00000000       0.66666669       0.00000000 </v>
    <v>       0.66666669       0.33333334       0.00000000 </v>
    <v>       0.66666669       0.66666669       0.00000000 </v>
    <v>       0.11068511       0.22244981       0.95539999 </v>
    <v>       0.22244981       0.11068511       0.04460000 </v>
    <v>       0.11068511       0.55578315       0.95539999 </v>
    <v>       0.22244981       0.44401845       0.04460000 </v>
    <v>       0.11068511       0.88911647       0.95539999 </v>
    <v>       0.22244981       0.77735180       0.04460000 </v>
    <v>       0.44401845       0.22244981       0.95539999 </v>
    <v>       0.55578315       0.11068511       0.04460000 </v>
    <v>       0.44401845       0.55578315       0.95539999 </v>
    <v>       0.55578315       0.44401845       0.04460000 </v>
    <v>       0.44401845       0.88911647       0.95539999 </v>
    <v>       0.55578315       0.77735180       0.04460000 </v>
    <v>       0.77735180       0.22244981       0.95539999 </v>
    <v>       0.88911647       0.11068511       0.04460000 </v>
    <v>       0.77735180       0.55578315       0.95539999 </v>
    <v>       0.88911647       0.44401845       0.04460000 </v>
    <v>       0.77735180       0.88911647       0.95539999 </v>
    <v>       0.88911647       0.77735180       0.04460000 </v>
   </varray>
  </structure>
  <varray name="forces" >
   <v>      -0.13256286       0.07598743      -0.08568387 </v>
   <v>      -0.21632641       0.19164292       0.10190756 </v>
   <v>      -0.08638401      -0.28289642       0.04151717 </v>
   <v>       0.05875733      -0.24267298       0.05652191 </v>
   <v>       0.23196934       0.14195752      -0.01602929 </v>
   <v>      -0.25067012       0.13255911      -0.12228547 </v>
   <v>       0.29009939       0.20293846       0.07795987 </v>
   <v>       0.54996459      -0.35951084      -0.01225540 </v>
   <v>      -0.35614859       0.11780226      -0.03184626 </v>
   <v>       0.89527506      -0.00025949      -1.47820509 </v>
   <v>      -0.91152661      -0.01793560       1.46722795 </v>
   <v>       0.38503673       0.72060971      -2.18145229 </v>
   <v>       0.32360593       0.65900708       1.39381662 </v>
   <v>      -0.66566302      -0.14284892      -2.07477278 </v>
   <v>       0.64362512      -0.16047829       2.12697934 </v>
   <v>      -0.66638082       0.16532747      -2.10846529 </v>
   <v>      -0.23556222       0.15998963       2.92992557 </v>
   <v>      -0.25729746      -0.51417089      -1.43884464 </v>
   <v>      -0.45908976      -0.55413653       2.12570321 </v>
   <v>       0.53705721      -0.70665923      -2.16691160 </v>
   <v>      -0.36102792      -0.70243466       2.14059987 </v>
   <v>      -0.04743322      -0.01284294      -2.95736413 </v>
   <v>       0.77673218       0.01489174       2.11706773 </v>
   <v>       0.12853597      -0.02674814      -2.86524513 </v>
   <v>      -0.31070701       0.01097182       2.90712993 </v>
   <v>       0.60356624       0.53961424      -2.14713728 </v>
   <v>      -0.46744503       0.59029553       2.20014180 </v>
  </varray>
  <varray name="stress" >
   <v>       7.37210085       0.00772481      -1.56204130 </v>
   <v>       0.00772487       4.36552881      -0.01784369 </v>
   <v>      -1.56204130      -0.01784385      30.33019766 </v>
  </varray>
  <energy>
   <i name="e_fr_energy">   -186.83090922 </i>
   <i name="e_wo_entrp">   -186.65828361 </i>
   <i name="e_0_energy">     -0.34525121 </i>
  </energy>
  <time name="totalsc">  839.67  841.88</time>
 </calculation>
 <calculation>
  <scstep>
   <time name="dav">   22.81   22.86</time>
   <time name="total">   23.35   23.41</time>
   <energy>
    <i name="alphaZ">     78.92530200 </i>
    <i name="ewald">  39381.22027410 </i>
    <i name="hartreedc"> -45338.67449032 </i>
    <i name="XCdc">   -239.06969169 </i>
    <i name="pawpsdc">   4192.03110244 </i>
    <i name="pawaedc">  -3610.03350151 </i>
    <i name="eentropy">     -0.28616900 </i>
    <i name="bandstr">  -1413.02082255 </i>
    <i name="atom">   6761.44252427 </i>
    <i name="e_fr_energy">   -187.46547225 </i>
    <i name="e_wo_entrp">   -187.17930325 </i>
    <i name="e_0_energy">   -187.32238775 </i>
   </energy>
  </scstep>
  <scstep>
   <time name="dav">   31.77   31.85</time>
   <time name="total">   32.31   32.39</time>
   <energy>
    <i name="e_fr_energy">   -189.36640885 </i>
    <i name="e_wo_entrp">   -189.04494928 </i>
    <i name="e_0_energy">   -189.20567906 </i>
   </energy>
  </scstep>
  <scstep>
   <time name="dav">   32.15   32.23</time>
   <time name="total">   32.70   32.79</time>
   <energy>
    <i name="e_fr_energy">   -189.35193223 </i>
    <i name="e_wo_entrp">   -189.07145477 </i>
    <i name="e_0_energy">   -189.21169350 </i>
   </energy>
  </scstep>
  <scstep>
   <time name="dav">   32.60   32.68</time>
   <time name="total">   33.14   33.23</time>
   <energy>
    <i name="e_fr_energy">   -188.73567754 </i>
    <i name="e_wo_entrp">   -188.45065321 </i>
    <i name="e_0_energy">   -188.59316538 </i>
   </energy>
  </scstep>
  <scstep>
   <time name="dav">   31.60   31.68</time>
   <time name="total">   32.14   32.23</time>
   <energy>
    <i name="e_fr_energy">   -188.76085632 </i>
    <i name="e_wo_entrp">   -188.47024625 </i>
    <i name="e_0_energy">   -188.61555129 </i>
   </energy>
  </scstep>
  <scstep>
   <time name="dav">   32.78   32.86</time>
   <time name="total">   33.33   33.42</time>
   <energy>
    <i name="e_fr_energy">   -188.74777060 </i>
    <i name="e_wo_entrp">   -188.45704872 </i>
    <i name="e_0_energy">   -188.60240966 </i>
   </energy>
  </scstep>
  <scstep>
   <time name="dav">   33.05   33.13</time>
   <time name="total">   33.59   33.68</time>
   <energy>
    <i name="e_fr_energy">   -188.66586271 </i>
    <i name="e_wo_entrp">   -188.38100751 </i>
    <i name="e_0_energy">   -188.52343511 </i>
   </energy>
  </scstep>
  <scstep>
   <time name="dav">   28.72   28.79</time>
   <time name="total">   29.26   29.34</time>
   <energy>
    <i name="e_fr_energy">   -188.64951013 </i>
    <i name="e_wo_entrp">   -188.36401137 </i>
    <i name="e_0_energy">   -188.50676075 </i>
   </energy>
  </scstep>
  <scstep>
   <time name="dav">   31.64   31.72</time>
   <time name="total">   32.18   32.27</time>
   <energy>
    <i name="e_fr_energy">   -188.64571378 </i>
    <i name="e_wo_entrp">   -188.36051935 </i>
    <i name="e_0_energy">   -188.50311657 </i>
   </energy>
  </scstep>
  <scstep>
   <time name="dav">   32.47   32.55</time>
   <time name="total">   33.01   33.10</time>
   <energy>
    <i name="e_fr_energy">   -188.64577135 </i>
    <i name="e_wo_entrp">   -188.36016184 </i>
    <i name="e_0_energy">   -188.50296659 </i>
   </energy>
  </scstep>
  <scstep>
   <time name="dav">   33.17   33.25</time>
   <time name="total">   33.72   33.80</time>
   <energy>
    <i name="e_fr_energy">   -188.64465711 </i>
    <i name="e_wo_entrp">   -188.36005108 </i>
    <i name="e_0_energy">   -188.50235410 </i>
   </energy>
  </scstep>
  <scstep>
   <time name="dav">   31.35   31.43</time>
   <time name="total">   31.89   31.98</time>
   <energy>
    <i name="e_fr_energy">   -188.64477230 </i>
    <i name="e_wo_entrp">   -188.36003615 </i>
    <i name="e_0_energy">   -188.50240422 </i>
   </energy>
  </scstep>
  <scstep>
   <time name="dav">   22.57   22.62</time>
   <time name="total">   22.61   22.67</time>
   <energy>
    <i name="alphaZ">     78.92530200 </i>
    <i name="ewald">  39381.22027410 </i>
    <i name="hartreedc"> -45349.51250218 </i>
    <i name="XCdc">   -237.97928569 </i>
    <i name="pawpsdc">   3950.42662469 </i>
    <i name="pawaedc">  -3364.93116276 </i>
    <i name="eentropy">     -0.28472153 </i>
    <i name="bandstr">  -1407.95176246 </i>
    <i name="atom">   6761.44252427 </i>
    <i name="e_fr_energy">   -188.64470956 </i>
    <i name="e_wo_entrp">   -188.35998803 </i>
    <i name="e_0_energy">   -188.50234879 </i>
   </energy>
  </scstep>
  <structure>
   <crystal>
    <varray name="basis" >
     <v>       8.85699606       5.10452743       0.00000000 </v>
     <v>      -8.85676824       5.10413602       0.00000000 </v>
     <v>       0.00000000       0.00000000      30.00000000 </v>
    </varray>
    <i name="volume">   2712.50787165 </i>
    <varray name="rec_basis" >
     <v>       0.05645111       0.09795476       0.00000000 </v>
     <v>      -0.05645544       0.09795728       0.00000000 </v>
     <v>       0.00000000       0.00000000       0.03333333 </v>
    </varray>
   </crystal>
   <varray name="positions" >
    <v>       0.33332821       0.66739917      -0.00013779 </v>
    <v>       0.00031534       0.00151905       0.00016388 </v>
    <v>       0.33173907       0.33221974       0.00006676 </v>
    <v>       0.99900204       0.33200844       0.00009089 </v>
    <v>       0.33465812       0.00003403      -0.00002578 </v>
    <v>       0.66660371       0.00133183      -0.00019665 </v>
    <v>       0.00177836       0.66683084       0.00012537 </v>
    <v>       0.66647617       0.33008264      -0.00001971 </v>
    <v>       0.66623962       0.66822135      -0.00005121 </v>
    <v>       0.11317467       0.21995777       0.95302291 </v>
    <v>       0.21982796       0.11313528       0.04695943 </v>
    <v>       0.11520517       0.55816074       0.95189202 </v>
    <v>       0.22650413       0.44627212       0.04684138 </v>
    <v>       0.10814946       0.89028478       0.95206357 </v>
    <v>       0.22347243       0.77479308       0.04802037 </v>
    <v>       0.44295573       0.22509504       0.95200939 </v>
    <v>       0.55589349       0.11210619       0.04931158 </v>
    <v>       0.44084180       0.55403818       0.95308620 </v>
    <v>       0.55185381       0.44264363       0.04801832 </v>
    <v>       0.44213058       0.88424023       0.95191540 </v>
    <v>       0.55141688       0.77499440       0.04804227 </v>
    <v>       0.77715836       0.22252031       0.95064429 </v>
    <v>       0.89134873       0.10859539       0.04800443 </v>
    <v>       0.77758139       0.55529753       0.95079242 </v>
    <v>       0.88830454       0.44493540       0.04927492 </v>
    <v>       0.78161360       0.89001983       0.95194720 </v>
    <v>       0.89064110       0.78147744       0.04813802 </v>
   </varray>
  </structure>
  <varray name="forces" >
   <v>      -0.14270167       0.07892101      -0.02767978 </v>
   <v>      -0.13741330       0.08829461       0.04667035 </v>
   <v>      -0.04378948      -0.20049232       0.10444879 </v>
   <v>      -0.26638511      -0.36557611       0.08972364 </v>
   <v>       0.30615232       0.22891231      -0.08734142 </v>
   <v>      -0.41997106       0.22537178      -0.02968538 </v>
   <v>       0.19372723       0.07718540      -0.07620253 </v>
   <v>       0.64522112      -0.30830233      -0.01429550 </v>
   <v>      -0.20008572       0.17436839       0.00400705 </v>
   <v>       0.03609150       0.00394170       0.01975422 </v>
   <v>      -0.03794929       0.00057749      -0.06802443 </v>
   <v>      -0.08758906       0.06380065       0.02509095 </v>
   <v>       0.01077771       0.03800806      -0.14736062 </v>
   <v>       0.01902324      -0.10470285       0.13275948 </v>
   <v>       0.00373132      -0.10443433       0.07684708 </v>
   <v>       0.01371714       0.10641039       0.01765467 </v>
   <v>      -0.03896251       0.10558873       0.24151610 </v>
   <v>       0.04002868       0.07023360       0.10139263 </v>
   <v>       0.05435215       0.07542086      -0.26008897 </v>
   <v>       0.03734843      -0.07177815      -0.12719666 </v>
   <v>       0.10367532      -0.05271793      -0.05979257 </v>
   <v>      -0.12653082      -0.01065000      -0.27862368 </v>
   <v>       0.05970904      -0.00847869       0.10108427 </v>
   <v>      -0.00690902      -0.01162710       0.25739383 </v>
   <v>      -0.13222299      -0.00514724       0.04545010 </v>
   <v>       0.07463477      -0.05040588       0.01199339 </v>
   <v>       0.04232008      -0.04272204      -0.09949501 </v>
  </varray>
  <varray name="stress" >
   <v>     -19.88172616      -0.00867636       0.05983640 </v>
   <v>      -0.00867634     -19.45818247       0.00793222 </v>
   <v>       0.05983635       0.00793227      -1.75001574 </v>
  </varray>
  <energy>
   <i name="e_fr_energy">   -188.64470956 </i>
   <i name="e_wo_entrp">   -188.50234879 </i>
   <i name="e_0_energy">     -0.28472153 </i>
  </energy>
  <time name="totalsc">  446.87  448.03</time>
 </calculation>
 <calculation>
  <scstep>
   <time name="dav">   25.13   25.19</time>
   <time name="total">   25.67   25.73</time>
   <energy>
    <i name="alphaZ">     82.35739434 </i>
    <i name="ewald">  41308.68994083 </i>
    <i name="hartreedc"> -47307.63794396 </i>
    <i name="XCdc">   -233.84815801 </i>
    <i name="pawpsdc">   3949.96365187 </i>
    <i name="pawaedc">  -3364.46392620 </i>
    <i name="eentropy">     -0.23757129 </i>
    <i name="bandstr">  -1386.83501532 </i>
    <i name="atom">   6761.44252427 </i>
    <i name="e_fr_energy">   -190.56910348 </i>
    <i name="e_wo_entrp">   -190.33153219 </i>
    <i name="e_0_energy">   -190.45031784 </i>
   </energy>
  </scstep>
  <scstep>
   <time name="dav">   30.00   30.07</time>
   <time name="total">   30.52   30.60</time>
   <energy>
    <i name="e_fr_energy">   -190.55595372 </i>
    <i name="e_wo_entrp">   -190.31346499 </i>
    <i name="e_0_energy">   -190.43470936 </i>
   </energy>
  </scstep>
  <scstep>
   <time name="dav">   31.92   31.99</time>
   <time name="total">   32.45   32.53</time>
   <energy>
    <i name="e_fr_energy">   -190.04155291 </i>
    <i name="e_wo_entrp">   -189.79284415 </i>
    <i name="e_0_energy">   -189.91719853 </i>
   </energy>
  </scstep>
  <scstep>
   <time name="dav">   32.88   32.95</time>
   <time name="total">   33.41   33.50</time>
   <energy>
    <i name="e_fr_energy">   -189.83544303 </i>
    <i name="e_wo_entrp">   -189.59555415 </i>
    <i name="e_0_energy">   -189.71549859 </i>
   </energy>
  </scstep>
  <scstep>
   <time name="dav">   30.30   30.37</time>
   <time name="total">   30.84   30.92</time>
   <energy>
    <i name="e_fr_energy">   -189.74788470 </i>
    <i name="e_wo_entrp">   -189.50602301 </i>
    <i name="e_0_energy">   -189.62695385 </i>
   </energy>
  </scstep>
  <scstep>
   <time name="dav">   28.12   28.19</time>
   <time name="total">   28.66   28.73</time>
   <energy>
    <i name="e_fr_energy">   -189.73298151 </i>
    <i name="e_wo_entrp">   -189.49207241 </i>
    <i name="e_0_energy">   -189.61252696 </i>
   </energy>
  </scstep>
  <scstep>
   <time name="dav">   31.97   32.04</time>
   <time name="total">   32.50   32.58</time>
   <energy>
    <i name="e_fr_energy">   -189.73388964 </i>
    <i name="e_wo_entrp">   -189.49250764 </i>
    <i name="e_0_energy">   -189.61319864 </i>
   </energy>
  </scstep>
  <scstep>
   <time name="dav">   30.95   31.03</time>
   <time name="total">   31.49   31.57</time>
   <energy>
    <i name="e_fr_energy">   -189.73278371 </i>
    <i name="e_wo_entrp">   -189.49189479 </i>
    <i name="e_0_energy">   -189.61233925 </i>
   </energy>
  </scstep>
  <scstep>
   <time name="dav">   27.81   27.88</time>
   <time name="total">   28.35   28.42</time>
   <energy>
    <i name="e_fr_energy">   -189.73289345 </i>
    <i name="e_wo_entrp">   -189.49171723 </i>
    <i name="e_0_energy">   -189.61230534 </i>
   </energy>
  </scstep>
  <scstep>
   <time name="dav">   27.71   27.78</time>
   <time name="total">   28.25   28.32</time>
   <energy>
    <i name="e_fr_energy">   -189.73313370 </i>
    <i name="e_wo_entrp">   -189.49222154 </i>
    <i name="e_0_energy">   -189.61267762 </i>
   </energy>
  </scstep>
  <scstep>
   <time name="dav">   26.41   26.48</time>
   <time name="total">   26.95   27.02</time>
   <energy>
    <i name="e_fr_energy">   -189.73281482 </i>
    <i name="e_wo_entrp">   -189.49169444 </i>
    <i name="e_0_energy">   -189.61225463 </i>
   </energy>
  </scstep>
  <scstep>
   <time name="dav">   18.50   18.54</time>
   <time name="total">   18.54   18.59</time>
   <energy>
    <i name="alphaZ">     82.35739434 </i>
    <i name="ewald">  41308.68994083 </i>
    <i name="hartreedc"> -47281.00606896 </i>
    <i name="XCdc">   -235.24161130 </i>
    <i name="pawpsdc">   4038.89447058 </i>
    <i name="pawaedc">  -3454.59759086 </i>
    <i name="eentropy">     -0.24102851 </i>
    <i name="bandstr">  -1410.03084834 </i>
    <i name="atom">   6761.44252427 </i>
    <i name="e_fr_energy">   -189.73281795 </i>
    <i name="e_wo_entrp">   -189.49178943 </i>
    <i name="e_0_energy">   -189.61230369 </i>
   </energy>
  </scstep>
  <structure>
   <crystal>
    <varray name="basis" >
     <v>       8.66842752       4.99810990       0.00000000 </v>
     <v>      -8.66829938       4.99789119       0.00000000 </v>
     <v>       0.00000000       0.00000000      30.00000000 </v>
    </varray>
    <i name="volume">   2599.46911456 </i>
    <varray name="rec_basis" >
     <v>       0.05767975       0.10003927       0.00000000 </v>
     <v>      -0.05768228       0.10004074       0.00000000 </v>
     <v>       0.00000000       0.00000000       0.03333333 </v>
    </varray>
   </crystal>
   <varray name="positions" >
    <v>       0.33332266       0.66766871      -0.00015354 </v>
    <v>       0.00033057       0.00179918       0.00019044 </v>
    <v>       0.33136156       0.33192663       0.00012621 </v>
    <v>       0.99813390       0.33165379       0.00014196 </v>
    <v>       0.33533604       0.00012178      -0.00007548 </v>
    <v>       0.66657585       0.00211356      -0.00021354 </v>
    <v>       0.00209417       0.66677320       0.00008200 </v>
    <v>       0.66658243       0.32894509      -0.00002784 </v>
    <v>       0.66633840       0.66870584      -0.00004893 </v>
    <v>       0.11321604       0.21992957       0.95303415 </v>
    <v>       0.21979235       0.11317283       0.04692072 </v>
    <v>       0.11522745       0.55835187       0.95190630 </v>
    <v>       0.22657808       0.44632530       0.04675751 </v>
    <v>       0.10799268       0.89009133       0.95213913 </v>
    <v>       0.22330137       0.77461482       0.04806410 </v>
    <v>       0.44314691       0.22525979       0.95201944 </v>
    <v>       0.55603252       0.11232034       0.04944903 </v>
    <v>       0.44099784       0.55411707       0.95314390 </v>
    <v>       0.55203233       0.44271738       0.04787030 </v>
    <v>       0.44204653       0.88408418       0.95184301 </v>
    <v>       0.55142864       0.77480630       0.04800824 </v>
    <v>       0.77701860       0.22262446       0.95048572 </v>
    <v>       0.89139210       0.10852366       0.04806196 </v>
    <v>       0.77755528       0.55528474       0.95093891 </v>
    <v>       0.88816849       0.44505424       0.04930079 </v>
    <v>       0.78160123       0.88986359       0.95195403 </v>
    <v>       0.89061044       0.78136520       0.04808140 </v>
   </varray>
  </structure>
  <varray name="forces" >
   <v>      -0.16413076       0.08021308      -0.00575031 </v>
   <v>      -0.11145905       0.02437543       0.02001079 </v>
   <v>      -0.02296940      -0.16450859       0.09462372 </v>
   <v>      -0.36867680      -0.40304330       0.07011634 </v>
   <v>       0.33384700       0.24549924      -0.07751643 </v>
   <v>      -0.46736044       0.25892988      -0.00207660 </v>
   <v>       0.16986814       0.02624135      -0.08845451 </v>
   <v>       0.67888497      -0.27195535      -0.00667289 </v>
   <v>      -0.15120367       0.19398041       0.01488409 </v>
   <v>       0.09706117       0.00298892      -0.41995768 </v>
   <v>      -0.09088855      -0.00265268       0.37522702 </v>
   <v>       0.04859169       0.11064429      -0.47441328 </v>
   <v>       0.03607208       0.09575222       0.28545708 </v>
   <v>      -0.09488947      -0.02361663      -0.34575053 </v>
   <v>       0.11782155      -0.02050003       0.58163207 </v>
   <v>      -0.10169819       0.04148743      -0.47798223 </v>
   <v>       0.00942388       0.02265105       0.81767222 </v>
   <v>      -0.03773678      -0.07682914      -0.36346494 </v>
   <v>       0.00294270      -0.04763347       0.21559871 </v>
   <v>       0.08536370      -0.12778212      -0.63010395 </v>
   <v>      -0.03362689      -0.09782768       0.43644921 </v>
   <v>      -0.02966234      -0.00476211      -0.87089589 </v>
   <v>       0.12525940      -0.02237261       0.59439764 </v>
   <v>       0.00319822      -0.02556247      -0.27142771 </v>
   <v>      -0.06750970      -0.00861257       0.60822208 </v>
   <v>       0.05406403       0.10012068      -0.48859847 </v>
   <v>      -0.02058650       0.09477477       0.40877441 </v>
  </varray>
  <varray name="stress" >
   <v>     -10.12979703       0.00255829       0.05099129 </v>
   <v>       0.00255823      -9.80042595       0.00858143 </v>
   <v>       0.05099152       0.00858157       6.51474788 </v>
  </varray>
  <energy>
   <i name="e_fr_energy">   -189.73281795 </i>
   <i name="e_wo_entrp">   -189.61230369 </i>
   <i name="e_0_energy">     -0.24102851 </i>
  </energy>
  <time name="totalsc">  391.25  392.27</time>
 </calculation>
 <calculation>
  <scstep>
   <time name="dav">   22.81   22.86</time>
   <time name="total">   23.33   23.39</time>
   <energy>
    <i name="alphaZ">     85.83142449 </i>
    <i name="ewald">  42837.99979221 </i>
    <i name="hartreedc"> -48854.75553937 </i>
    <i name="XCdc">   -232.95908985 </i>
    <i name="pawpsdc">   4039.06217574 </i>
    <i name="pawaedc">  -3454.76378986 </i>
    <i name="eentropy">     -0.20249838 </i>
    <i name="bandstr">  -1372.94248303 </i>
    <i name="atom">   6761.44252427 </i>
    <i name="e_fr_energy">   -191.28748378 </i>
    <i name="e_wo_entrp">   -191.08498540 </i>
    <i name="e_0_energy">   -191.18623459 </i>
   </energy>
  </scstep>
  <scstep>
   <time name="dav">   33.63   33.71</time>
   <time name="total">   34.14   34.23</time>
   <energy>
    <i name="e_fr_energy">   -191.18931896 </i>
    <i name="e_wo_entrp">   -190.97857465 </i>
    <i name="e_0_energy">   -191.08394680 </i>
   </energy>
  </scstep>
  <scstep>
   <time name="dav">   31.45   31.52</time>
   <time name="total">   31.96   32.05</time>
   <energy>
    <i name="e_fr_energy">   -191.19773816 </i>
    <i name="e_wo_entrp">   -190.97994363 </i>
    <i name="e_0_energy">   -191.08884089 </i>
   </energy>
  </scstep>
  <scstep>
   <time name="dav">   32.60   32.68</time>
   <time name="total">   33.12   33.21</time>
   <energy>
    <i name="e_fr_energy">   -190.87072084 </i>
    <i name="e_wo_entrp">   -190.65832275 </i>
    <i name="e_0_energy">   -190.76452179 </i>
   </energy>
  </scstep>
  <scstep>
   <time name="dav">   30.56   30.63</time>
   <time name="total">   31.08   31.16</time>
   <energy>
    <i name="e_fr_energy">   -190.85760431 </i>
    <i name="e_wo_entrp">   -190.65290954 </i>
    <i name="e_0_energy">   -190.75525692 </i>
   </energy>
  </scstep>
  <scstep>
   <time name="dav">   31.27   31.34</time>
   <time name="total">   31.79   31.87</time>
   <energy>
    <i name="e_fr_energy">   -190.71221472 </i>
    <i name="e_wo_entrp">   -190.50184896 </i>
    <i name="e_0_energy">   -190.60703184 </i>
   </energy>
  </scstep>
  <scstep>
   <time name="dav">   32.25   32.33</time>
   <time name="total">   32.77   32.86</time>
   <energy>
    <i name="e_fr_energy">   -190.70464012 </i>
    <i name="e_wo_entrp">   -190.49578016 </i>
    <i name="e_0_energy">   -190.60021014 </i>
   </energy>
  </scstep>
  <scstep>
   <time name="dav">   29.47   29.54</time>
   <time name="total">   29.99   30.06</time>
   <energy>
    <i name="e_fr_energy">   -190.70410230 </i>
    <i name="e_wo_entrp">   -190.49508922 </i>
    <i name="e_0_energy">   -190.59959576 </i>
   </energy>
  </scstep>
  <scstep>
   <time name="dav">   29.69   29.76</time>
   <time name="total">   30.21   30.29</time>
   <energy>
    <i name="e_fr_energy">   -190.70135297 </i>
    <i name="e_wo_entrp">   -190.49234205 </i>
    <i name="e_0_energy">   -190.59684751 </i>
   </energy>
  </scstep>
  <scstep>
   <time name="dav">   27.12   27.18</time>
   <time name="total">   27.64   27.71</time>
   <energy>
    <i name="e_fr_energy">   -190.70160936 </i>
    <i name="e_wo_entrp">   -190.49251492 </i>
    <i name="e_0_energy">   -190.59706214 </i>
   </energy>
  </scstep>
  <scstep>
   <time name="dav">   27.87   27.94</time>
   <time name="total">   28.39   28.47</time>
   <energy>
    <i name="e_fr_energy">   -190.70149163 </i>
    <i name="e_wo_entrp">   -190.49253978 </i>
    <i name="e_0_energy">   -190.59701570 </i>
   </energy>
  </scstep>
  <scstep>
   <time name="dav">   22.06   22.11</time>
   <time name="total">   22.10   22.16</time>
   <energy>
    <i name="alphaZ">     85.83142449 </i>
    <i name="ewald">  42837.99979221 </i>
    <i name="hartreedc"> -48826.26911716 </i>
    <i name="XCdc">   -234.28394524 </i>
    <i name="pawpsdc">   4063.83363462 </i>
    <i name="pawaedc">  -3479.71707300 </i>
    <i name="eentropy">     -0.20899221 </i>
    <i name="bandstr">  -1399.32972119 </i>
    <i name="atom">   6761.44252427 </i>
    <i name="e_fr_energy">   -190.70147321 </i>
    <i name="e_wo_entrp">   -190.49248100 </i>
    <i name="e_0_energy">   -190.59697710 </i>
   </energy>
  </scstep>
  <structure>
   <crystal>
    <varray name="basis" >
     <v>       8.48686906       4.89872895       0.00000000 </v>
     <v>      -8.48646538       4.89803203       0.00000000 </v>
     <v>       0.00000000       0.00000000      30.00000000 </v>
    </varray>
    <i name="volume">   2494.25550377 </i>
    <varray name="rec_basis" >
     <v>       0.05891175       0.10207213       0.00000000 </v>
     <v>      -0.05892013       0.10207698       0.00000000 </v>
     <v>       0.00000000       0.00000000       0.03333333 </v>
    </varray>
   </crystal>
   <varray name="positions" >
    <v>       0.33320471       0.66879862      -0.00014692 </v>
    <v>      -0.00004107       0.00215902       0.00020935 </v>
    <v>       0.33036655       0.33103808       0.00031386 </v>
    <v>       0.99403575       0.33051354       0.00027059 </v>
    <v>       0.33816228       0.00045536      -0.00022771 </v>
    <v>       0.66652500       0.00557695      -0.00019452 </v>
    <v>       0.00271203       0.66623133      -0.00011153 </v>
    <v>       0.66747010       0.32482867      -0.00003522 </v>
    <v>       0.66712632       0.67044697      -0.00000892 </v>
    <v>       0.11367047       0.21950787       0.95179301 </v>
    <v>       0.21936344       0.11355246       0.04807221 </v>
    <v>       0.11640771       0.55879118       0.95050188 </v>
    <v>       0.22748816       0.44690224       0.04771430 </v>
    <v>       0.10754001       0.89065058       0.95101889 </v>
    <v>       0.22397035       0.77410559       0.04969502 </v>
    <v>       0.44271306       0.22589138       0.95061090 </v>
    <v>       0.55607189       0.11215311       0.05162904 </v>
    <v>       0.43990354       0.55351808       0.95199851 </v>
    <v>       0.55136537       0.44217624       0.04871863 </v>
    <v>       0.44148383       0.88276697       0.95011331 </v>
    <v>       0.55038550       0.77439914       0.04933129 </v>
    <v>       0.77703474       0.22257785       0.94818188 </v>
    <v>       0.89176391       0.10780238       0.04970962 </v>
    <v>       0.77738649       0.55506390       0.94993008 </v>
    <v>       0.88795448       0.44514309       0.05103575 </v>
    <v>       0.78276844       0.89069884       0.95051932 </v>
    <v>       0.89138140       0.78246501       0.04935729 </v>
   </varray>
  </structure>
  <varray name="forces" >
   <v>      -0.15325847       0.07295581       0.03626189 </v>
   <v>      -0.07490084      -0.06223180      -0.03659572 </v>
   <v>      -0.03443951      -0.11633424       0.04825353 </v>
   <v>      -0.41648255      -0.41459393       0.01202643 </v>
   <v>       0.33855146       0.24949175      -0.03733666 </v>
   <v>      -0.46038183       0.27737855       0.02029414 </v>
   <v>       0.16886118       0.01330722      -0.06156166 </v>
   <v>       0.69535051      -0.25082712       0.00601692 </v>
   <v>      -0.21197381       0.21925357       0.01633789 </v>
   <v>      -0.02613856      -0.01284649      -0.27858832 </v>
   <v>       0.02802186      -0.01024795       0.29342302 </v>
   <v>       0.08616283       0.00207011      -0.32157871 </v>
   <v>      -0.05135992      -0.03426121       0.18848708 </v>
   <v>      -0.00320761       0.06067045      -0.18701183 </v>
   <v>       0.04854556       0.02456003       0.36106884 </v>
   <v>       0.01261143       0.02102400      -0.30532968 </v>
   <v>       0.02741879      -0.02306453       0.62557741 </v>
   <v>      -0.02406240      -0.03472223      -0.25629889 </v>
   <v>       0.07406433      -0.01240283       0.06082692 </v>
   <v>       0.06511675       0.00220796      -0.48685247 </v>
   <v>      -0.06756964       0.02259167       0.26370956 </v>
   <v>       0.04460023      -0.02296498      -0.72042399 </v>
   <v>      -0.01541537      -0.02352816       0.43073032 </v>
   <v>       0.04075642      -0.07736461      -0.10020761 </v>
   <v>      -0.03789106      -0.03405231       0.45439854 </v>
   <v>      -0.05614832       0.07327836      -0.31882888 </v>
   <v>       0.00316851       0.09065290       0.29320191 </v>
  </varray>
  <varray name="stress" >
   <v>      -5.61193042      -0.02258699      -0.13124837 </v>
   <v>      -0.02258705      -5.78001174      -0.01390102 </v>
   <v>      -0.13124836      -0.01390101       4.50313523 </v>
  </varray>
  <energy>
   <i name="e_fr_energy">   -190.70147321 </i>
   <i name="e_wo_entrp">   -190.59697710 </i>
   <i name="e_0_energy">     -0.20899221 </i>
  </energy>
  <time name="totalsc">  400.54  401.59</time>
 </calculation>
 <calculation>
  <scstep>
   <time name="dav">   22.84   22.89</time>
   <time name="total">   23.35   23.40</time>
   <energy>
    <i name="alphaZ">     90.09554097 </i>
    <i name="ewald">  44634.37089979 </i>
    <i name="hartreedc"> -50676.78260904 </i>
    <i name="XCdc">   -231.86929697 </i>
    <i name="pawpsdc">   4063.80231717 </i>
    <i name="pawaedc">  -3479.68065216 </i>
    <i name="eentropy">     -0.19294473 </i>
    <i name="bandstr">  -1353.20134746 </i>
    <i name="atom">   6761.44252427 </i>
    <i name="e_fr_energy">   -192.01556815 </i>
    <i name="e_wo_entrp">   -191.82262342 </i>
    <i name="e_0_energy">   -191.91909578 </i>
   </energy>
  </scstep>
  <scstep>
   <time name="dav">   31.79   31.86</time>
   <time name="total">   32.29   32.38</time>
   <energy>
    <i name="e_fr_energy">   -191.86965524 </i>
    <i name="e_wo_entrp">   -191.66493253 </i>
    <i name="e_0_energy">   -191.76729388 </i>
   </energy>
  </scstep>
  <scstep>
   <time name="dav">   29.47   29.54</time>
   <time name="total">   29.97   30.05</time>
   <energy>
    <i name="e_fr_energy">   -192.18688324 </i>
    <i name="e_wo_entrp">   -191.97957226 </i>
    <i name="e_0_energy">   -192.08322775 </i>
   </energy>
  </scstep>
  <scstep>
   <time name="dav">   31.24   31.32</time>
   <time name="total">   31.74   31.83</time>
   <energy>
    <i name="e_fr_energy">   -191.57816977 </i>
    <i name="e_wo_entrp">   -191.37403926 </i>
    <i name="e_0_energy">   -191.47610452 </i>
   </energy>
  </scstep>
  <scstep>
   <time name="dav">   31.69   31.77</time>
   <time name="total">   32.20   32.28</time>
   <energy>
    <i name="e_fr_energy">   -191.51581516 </i>
    <i name="e_wo_entrp">   -191.32005959 </i>
    <i name="e_0_energy">   -191.41793738 </i>
   </energy>
  </scstep>
  <scstep>
   <time name="dav">   31.61   31.69</time>
   <time name="total">   32.12   32.21</time>
   <energy>
    <i name="e_fr_energy">   -191.33244064 </i>
    <i name="e_wo_entrp">   -191.13013329 </i>
    <i name="e_0_energy">   -191.23128697 </i>
   </energy>
  </scstep>
  <scstep>
   <time name="dav">   31.60   31.68</time>
   <time name="total">   32.11   32.19</time>
   <energy>
    <i name="e_fr_energy">   -191.32593617 </i>
    <i name="e_wo_entrp">   -191.12455772 </i>
    <i name="e_0_energy">   -191.22524695 </i>
   </energy>
  </scstep>
  <scstep>
   <time name="dav">   30.85   30.92</time>
   <time name="total">   31.36   31.44</time>
   <energy>
    <i name="e_fr_energy">   -191.32380326 </i>
    <i name="e_wo_entrp">   -191.12270613 </i>
    <i name="e_0_energy">   -191.22325469 </i>
   </energy>
  </scstep>
  <scstep>
   <time name="dav">   30.80   30.88</time>
   <time name="total">   31.31   31.39</time>
   <energy>
    <i name="e_fr_energy">   -191.32077401 </i>
    <i name="e_wo_entrp">   -191.11934291 </i>
    <i name="e_0_energy">   -191.22005846 </i>
   </energy>
  </scstep>
  <scstep>
   <time name="dav">   28.76   28.83</time>
   <time name="total">   29.26   29.34</time>
   <energy>
    <i name="e_fr_energy">   -191.32117334 </i>
    <i name="e_wo_entrp">   -191.11990102 </i>
    <i name="e_0_energy">   -191.22053718 </i>
   </energy>
  </scstep>
  <scstep>
   <time name="dav">   29.60   29.67</time>
   <time name="total">   30.10   30.18</time>
   <energy>
    <i name="e_fr_energy">   -191.32094294 </i>
    <i name="e_wo_entrp">   -191.11964696 </i>
    <i name="e_0_energy">   -191.22029495 </i>
   </energy>
  </scstep>
  <scstep>
   <time name="dav">   19.46   19.51</time>
   <time name="total">   19.50   19.55</time>
   <energy>
    <i name="alphaZ">     90.09554097 </i>
    <i name="ewald">  44634.37089979 </i>
    <i name="hartreedc"> -50643.69274758 </i>
    <i name="XCdc">   -233.36306731 </i>
    <i name="pawpsdc">   4085.36644581 </i>
    <i name="pawaedc">  -3501.34233983 </i>
    <i name="eentropy">     -0.20133680 </i>
    <i name="bandstr">  -1383.99686336 </i>
    <i name="atom">   6761.44252427 </i>
    <i name="e_fr_energy">   -191.32094404 </i>
    <i name="e_wo_entrp">   -191.11960723 </i>
    <i name="e_0_energy">   -191.22027563 </i>
   </energy>
  </scstep>
  <structure>
   <crystal>
    <varray name="basis" >
     <v>       8.28695220       4.77821642       0.00000000 </v>
     <v>      -8.28763779       4.77940692       0.00000000 </v>
     <v>       0.00000000       0.00000000      30.00000000 </v>
    </varray>
    <i name="volume">   2376.20531089 </i>
    <varray name="rec_basis" >
     <v>       0.06034083       0.10463285       0.00000000 </v>
     <v>      -0.06032580       0.10462419       0.00000000 </v>
     <v>       0.00000000       0.00000000       0.03333333 </v>
    </varray>
   </crystal>
   <varray name="positions" >
    <v>       0.33298852       0.67080629      -0.00000539 </v>
    <v>      -0.00134402       0.00188424       0.00006960 </v>
    <v>       0.32878939       0.32985233       0.00051833 </v>
    <v>       0.98592738       0.32844533       0.00032945 </v>
    <v>       0.34361027       0.00110766      -0.00038605 </v>
    <v>       0.66664690       0.01227682      -0.00010018 </v>
    <v>       0.00389023       0.66513218      -0.00037913 </v>
    <v>       0.66939171       0.31698727      -0.00001093 </v>
    <v>       0.66844467       0.67444764       0.00006487 </v>
    <v>       0.11356924       0.21934500       0.95020757 </v>
    <v>       0.21924226       0.11343288       0.04968840 </v>
    <v>       0.11752235       0.55833859       0.94868480 </v>
    <v>       0.22721041       0.44709546       0.04891592 </v>
    <v>       0.10807085       0.89176300       0.94974769 </v>
    <v>       0.22501347       0.77397694       0.05170752 </v>
    <v>       0.44261489       0.22620147       0.94885108 </v>
    <v>       0.55588833       0.11146587       0.05473433 </v>
    <v>       0.43870168       0.55292654       0.95049463 </v>
    <v>       0.55118286       0.44125989       0.04948900 </v>
    <v>       0.44169367       0.88187785       0.94764821 </v>
    <v>       0.54967841       0.77501068       0.05092810 </v>
    <v>       0.77720026       0.22194974       0.94471003 </v>
    <v>       0.89157235       0.10735247       0.05195558 </v>
    <v>       0.77676294       0.55391028       0.94894598 </v>
    <v>       0.88738744       0.44495134       0.05343549 </v>
    <v>       0.78379416       0.89236701       0.94870322 </v>
    <v>       0.89276383       0.78404966       0.05105177 </v>
   </varray>
  </structure>
  <varray name="forces" >
   <v>      -0.09599529       0.06261501      -0.03432626 </v>
   <v>      -0.04173992      -0.09591971       0.01164403 </v>
   <v>      -0.05905857      -0.11265767       0.03095088 </v>
   <v>      -0.19086965      -0.14324387      -0.05447547 </v>
   <v>       0.18668047       0.09472648       0.01445976 </v>
   <v>      -0.01466266       0.04375591      -0.03395622 </v>
   <v>       0.18923631      -0.00028486      -0.00234415 </v>
   <v>       0.23109991      -0.07566372       0.02675496 </v>
   <v>      -0.32161679       0.20090665       0.00716775 </v>
   <v>      -0.12899779      -0.03405851      -0.00824691 </v>
   <v>       0.11950556      -0.03599975      -0.01161481 </v>
   <v>       0.06342734      -0.09490000      -0.03660781 </v>
   <v>      -0.15531526      -0.18369293      -0.04714741 </v>
   <v>       0.12474765       0.11988774       0.06219214 </v>
   <v>      -0.01461705       0.03730090       0.06586262 </v>
   <v>       0.15952478       0.06381033      -0.00091081 </v>
   <v>       0.02167099      -0.03516286       0.29134620 </v>
   <v>      -0.02441177       0.03055673       0.01269974 </v>
   <v>       0.21514365       0.07788054      -0.23827925 </v>
   <v>       0.03906227       0.12691687      -0.13085210 </v>
   <v>      -0.09003975       0.14546636       0.05599979 </v>
   <v>       0.06117685      -0.04716138      -0.34831113 </v>
   <v>      -0.16477223      -0.01010743       0.07375576 </v>
   <v>       0.06539192      -0.16093361       0.20794475 </v>
   <v>      -0.06521791      -0.07447985       0.15699624 </v>
   <v>      -0.15782978       0.03966805      -0.08271433 </v>
   <v>       0.04847674       0.06077458       0.01201205 </v>
  </varray>
  <varray name="stress" >
   <v>       0.32981504      -0.00827736      -0.32293008 </v>
   <v>      -0.00827731      -0.11533854      -0.06649537 </v>
   <v>      -0.32293014      -0.06649529      -0.39029004 </v>
  </varray>
  <energy>
   <i name="e_fr_energy">   -191.32094404 </i>
   <i name="e_wo_entrp">   -191.22027563 </i>
   <i name="e_0_energy">     -0.20133680 </i>
  </energy>
  <time name="totalsc">  399.15  400.19</time>
 </calculation>
 <calculation>
  <scstep>
   <time name="dav">   22.82   22.88</time>
   <time name="total">   23.33   23.38</time>
   <energy>
    <i name="alphaZ">     90.00936893 </i>
    <i name="ewald">  44577.50745808 </i>
    <i name="hartreedc"> -50586.61530931 </i>
    <i name="XCdc">   -233.49501963 </i>
    <i name="pawpsdc">   4085.28372026 </i>
    <i name="pawaedc">  -3501.25576381 </i>
    <i name="eentropy">     -0.20435599 </i>
    <i name="bandstr">  -1384.03320811 </i>
    <i name="atom">   6761.44252427 </i>
    <i name="e_fr_energy">   -191.36058530 </i>
    <i name="e_wo_entrp">   -191.15622931 </i>
    <i name="e_0_energy">   -191.25840730 </i>
   </energy>
  </scstep>
  <scstep>
   <time name="dav">   32.63   32.70</time>
   <time name="total">   33.13   33.22</time>
   <energy>
    <i name="e_fr_energy">   -191.39909107 </i>
    <i name="e_wo_entrp">   -191.19213186 </i>
    <i name="e_0_energy">   -191.29561147 </i>
   </energy>
  </scstep>
  <scstep>
   <time name="dav">   31.18   31.26</time>
   <time name="total">   31.69   31.77</time>
   <energy>
    <i name="e_fr_energy">   -191.37106543 </i>
    <i name="e_wo_entrp">   -191.16707266 </i>
    <i name="e_0_energy">   -191.26906904 </i>
   </energy>
  </scstep>
  <scstep>
   <time name="dav">   29.20   29.27</time>
   <time name="total">   29.71   29.79</time>
   <energy>
    <i name="e_fr_energy">   -191.37103619 </i>
    <i name="e_wo_entrp">   -191.16601174 </i>
    <i name="e_0_energy">   -191.26852396 </i>
   </energy>
  </scstep>
  <scstep>
   <time name="dav">   27.39   27.45</time>
   <time name="total">   27.90   27.97</time>
   <energy>
    <i name="e_fr_energy">   -191.36910691 </i>
    <i name="e_wo_entrp">   -191.16435274 </i>
    <i name="e_0_energy">   -191.26672983 </i>
   </energy>
  </scstep>
  <scstep>
   <time name="dav">   27.23   27.29</time>
   <time name="total">   27.73   27.81</time>
   <energy>
    <i name="e_fr_energy">   -191.36895869 </i>
    <i name="e_wo_entrp">   -191.16414276 </i>
    <i name="e_0_energy">   -191.26655073 </i>
   </energy>
  </scstep>
  <scstep>
   <time name="dav">   27.40   27.46</time>
   <time name="total">   27.90   27.97</time>
   <energy>
    <i name="e_fr_energy">   -191.36931277 </i>
    <i name="e_wo_entrp">   -191.16463994 </i>
    <i name="e_0_energy">   -191.26697635 </i>
   </energy>
  </scstep>
  <scstep>
   <time name="dav">   24.27   24.33</time>
   <time name="total">   24.78   24.85</time>
   <energy>
    <i name="e_fr_energy">   -191.36871172 </i>
    <i name="e_wo_entrp">   -191.16396185 </i>
    <i name="e_0_energy">   -191.26633678 </i>
   </energy>
  </scstep>
  <scstep>
   <time name="dav">   17.65   17.69</time>
   <time name="total">   17.69   17.74</time>
   <energy>
    <i name="alphaZ">     90.00936893 </i>
    <i name="ewald">  44577.50745808 </i>
    <i name="hartreedc"> -50588.20917805 </i>
    <i name="XCdc">   -233.44849924 </i>
    <i name="pawpsdc">   4081.81028088 </i>
    <i name="pawaedc">  -3497.73575215 </i>
    <i name="eentropy">     -0.20479635 </i>
    <i name="bandstr">  -1382.54012627 </i>
    <i name="atom">   6761.44252427 </i>
    <i name="e_fr_energy">   -191.36871989 </i>
    <i name="e_wo_entrp">   -191.16392354 </i>
    <i name="e_0_energy">   -191.26632171 </i>
   </energy>
  </scstep>
  <structure>
   <crystal>
    <varray name="basis" >
     <v>       8.29554507       4.77761370       0.00000000 </v>
     <v>      -8.29642447       4.77913895       0.00000000 </v>
     <v>       0.00000000       0.00000000      30.00000000 </v>
    </varray>
    <i name="volume">   2378.48021234 </i>
    <varray name="rec_basis" >
     <v>       0.06027974       0.10464360       0.00000000 </v>
     <v>      -0.06026050       0.10463251       0.00000000 </v>
     <v>       0.00000000       0.00000000       0.03333333 </v>
    </varray>
   </crystal>
   <varray name="positions" >
    <v>       0.33302765       0.67135785      -0.00006127 </v>
    <v>      -0.00191601       0.00153477       0.00008983 </v>
    <v>       0.32808875       0.32948245       0.00056382 </v>
    <v>       0.98479814       0.32831123       0.00024301 </v>
    <v>       0.34452808       0.00103471      -0.00036097 </v>
    <v>       0.66681920       0.01243633      -0.00015495 </v>
    <v>       0.00441098       0.66461001      -0.00037872 </v>
    <v>       0.66964683       0.31607066       0.00003070 </v>
    <v>       0.66850029       0.67629416       0.00007496 </v>
    <v>       0.11303421       0.21954780       0.95022222 </v>
    <v>       0.21940804       0.11291597       0.04964243 </v>
    <v>       0.11721425       0.55769638       0.94865889 </v>
    <v>       0.22586360       0.44662659       0.04882015 </v>
    <v>       0.10900982       0.89197968       0.94986881 </v>
    <v>       0.22513666       0.77420486       0.05177614 </v>
    <v>       0.44338805       0.22605685       0.94888042 </v>
    <v>       0.55578029       0.11124318       0.05514056 </v>
    <v>       0.43880618       0.55315821       0.95054103 </v>
    <v>       0.55218560       0.44104814       0.04909881 </v>
    <v>       0.44242940       0.88240932       0.94748369 </v>
    <v>       0.55015432       0.77597530       0.05098753 </v>
    <v>       0.77713806       0.22155317       0.94421961 </v>
    <v>       0.89105532       0.10777976       0.05203364 </v>
    <v>       0.77616472       0.55294793       0.94929222 </v>
    <v>       0.88684243       0.44477293       0.05364136 </v>
    <v>       0.78352125       0.89298273       0.94860505 </v>
    <v>       0.89317837       0.78418348       0.05104096 </v>
   </varray>
  </structure>
  <varray name="forces" >
   <v>      -0.08424371       0.07870859      -0.03191238 </v>
   <v>      -0.07969483      -0.07532875       0.02256754 </v>
   <v>      -0.05782447      -0.14734429       0.04079275 </v>
   <v>      -0.22054771      -0.15571128      -0.03199432 </v>
   <v>       0.19683003       0.12943732       0.01646715 </v>
   <v>      -0.04496203       0.04478269       0.00106934 </v>
   <v>       0.22590187      -0.00145345      -0.00554309 </v>
   <v>       0.35244432      -0.13711759       0.01041160 </v>
   <v>      -0.39193977       0.21197508       0.01784387 </v>
   <v>      -0.07155963      -0.02647045       0.00398536 </v>
   <v>       0.08188464      -0.03451268      -0.04051691 </v>
   <v>       0.04509967      -0.04672025      -0.03958642 </v>
   <v>      -0.10192291      -0.11393865      -0.07674134 </v>
   <v>       0.08598337       0.06743242       0.09051085 </v>
   <v>       0.01369749       0.01645869       0.05527584 </v>
   <v>       0.09795626       0.03579727       0.02051496 </v>
   <v>       0.04400716      -0.01235390       0.16151795 </v>
   <v>      -0.02660870       0.02782423       0.03123238 </v>
   <v>       0.12748849       0.07857463      -0.24248056 </v>
   <v>       0.02709532       0.06401281      -0.10264329 </v>
   <v>      -0.06256550       0.07228767       0.07918086 </v>
   <v>       0.01786170      -0.04325302      -0.20813006 </v>
   <v>      -0.09448300       0.00553984       0.04083252 </v>
   <v>       0.00763838      -0.09534987       0.23209171 </v>
   <v>      -0.04127216      -0.03771167       0.09962618 </v>
   <v>      -0.07964337       0.05230745      -0.11721655 </v>
   <v>       0.03337906       0.04212715      -0.02715594 </v>
  </varray>
  <varray name="stress" >
   <v>      -0.20294883       0.04509394      -0.11404790 </v>
   <v>       0.04509387      -0.20885498      -0.01977453 </v>
   <v>      -0.11404810      -0.01977458      -1.07385660 </v>
  </varray>
  <energy>
   <i name="e_fr_energy">   -191.36871989 </i>
   <i name="e_wo_entrp">   -191.26632171 </i>
   <i name="e_0_energy">     -0.20479635 </i>
  </energy>
  <time name="totalsc">  287.82  288.57</time>
 </calculation>
 <calculation>
  <scstep>
   <time name="dav">   22.84   22.89</time>
   <time name="total">   23.34   23.40</time>
   <energy>
    <i name="alphaZ">     90.17708406 </i>
    <i name="ewald">  44647.45474002 </i>
    <i name="hartreedc"> -50660.20730200 </i>
    <i name="XCdc">   -233.35950890 </i>
    <i name="pawpsdc">   4081.66820519 </i>
    <i name="pawaedc">  -3497.59183047 </i>
    <i name="eentropy">     -0.20664259 </i>
    <i name="bandstr">  -1380.79528874 </i>
    <i name="atom">   6761.44252427 </i>
    <i name="e_fr_energy">   -191.41801916 </i>
    <i name="e_wo_entrp">   -191.21137657 </i>
    <i name="e_0_energy">   -191.31469786 </i>
   </energy>
  </scstep>
  <scstep>
   <time name="dav">   32.96   33.04</time>
   <time name="total">   33.47   33.55</time>
   <energy>
    <i name="e_fr_energy">   -191.45382706 </i>
    <i name="e_wo_entrp">   -191.24335989 </i>
    <i name="e_0_energy">   -191.34859348 </i>
   </energy>
  </scstep>
  <scstep>
   <time name="dav">   31.46   31.54</time>
   <time name="total">   31.96   32.05</time>
   <energy>
    <i name="e_fr_energy">   -191.42846606 </i>
    <i name="e_wo_entrp">   -191.22214771 </i>
    <i name="e_0_energy">   -191.32530688 </i>
   </energy>
  </scstep>
  <scstep>
   <time name="dav">   29.28   29.35</time>
   <time name="total">   29.78   29.86</time>
   <energy>
    <i name="e_fr_energy">   -191.42600081 </i>
    <i name="e_wo_entrp">   -191.21884330 </i>
    <i name="e_0_energy">   -191.32242205 </i>
   </energy>
  </scstep>
  <scstep>
   <time name="dav">   28.28   28.35</time>
   <time name="total">   28.79   28.87</time>
   <energy>
    <i name="e_fr_energy">   -191.42439045 </i>
    <i name="e_wo_entrp">   -191.21681916 </i>
    <i name="e_0_energy">   -191.32060481 </i>
   </energy>
  </scstep>
  <scstep>
   <time name="dav">   27.57   27.64</time>
   <time name="total">   28.08   28.15</time>
   <energy>
    <i name="e_fr_energy">   -191.42373603 </i>
    <i name="e_wo_entrp">   -191.21614730 </i>
    <i name="e_0_energy">   -191.31994167 </i>
   </energy>
  </scstep>
  <scstep>
[...]
      <set comment="kpoint 31">
       <r>  -17.4874    1.0000 </r>
       <r>  -17.2585    1.0000 </r>
       <r>  -16.9313    1.0000 </r>
       <r>  -16.5947    1.0000 </r>
       <r>  -16.4955    1.0000 </r>
       <r>  -16.3843    1.0000 </r>
       <r>  -16.2703    1.0000 </r>
       <r>  -16.1516    1.0000 </r>
       <r>  -16.0326    1.0000 </r>
       <r>  -16.0161    1.0000 </r>
       <r>  -15.9463    1.0000 </r>
       <r>  -15.8768    1.0000 </r>
       <r>  -15.8045    1.0000 </r>
       <r>  -15.7380    1.0000 </r>
       <r>  -15.6585    1.0000 </r>
       <r>  -15.5633    1.0000 </r>
       <r>  -15.4422    1.0000 </r>
       <r>  -15.4035    1.0000 </r>
       <r>   -9.7374    1.0000 </r>
       <r>   -9.4176    1.0000 </r>
       <r>   -9.2758    1.0000 </r>
       <r>   -8.9101    1.0000 </r>
       <r>   -8.7933    1.0000 </r>
       <r>   -8.7294    1.0000 </r>
       <r>   -8.5635    1.0000 </r>
       <r>   -8.4902    1.0000 </r>
       <r>   -8.3930    1.0000 </r>
       <r>   -8.3613    1.0000 </r>
       <r>   -8.2962    1.0000 </r>
       <r>   -8.1893    1.0000 </r>
       <r>   -8.1487    1.0000 </r>
       <r>   -8.1141    1.0000 </r>
       <r>   -7.9363    1.0000 </r>
       <r>   -7.9213    1.0000 </r>
       <r>   -7.7323    1.0000 </r>
       <r>   -7.6375    1.0000 </r>
       <r>   -7.5247    1.0000 </r>
       <r>   -7.4084    1.0000 </r>
       <r>   -7.3393    1.0000 </r>
       <r>   -7.2368    1.0000 </r>
       <r>   -7.1565    1.0000 </r>
       <r>   -7.1325    1.0000 </r>
       <r>   -6.9932    1.0000 </r>
       <r>   -6.9292    1.0000 </r>
       <r>   -6.8617    1.0000 </r>
       <r>   -6.7734    1.0000 </r>
       <r>   -6.7147    1.0000 </r>
       <r>   -6.6632    1.0000 </r>
       <r>   -6.5816    1.0000 </r>
       <r>   -6.4883    1.0000 </r>
       <r>   -6.4426    1.0000 </r>
       <r>   -6.3153    1.0000 </r>
       <r>   -6.2193    1.0000 </r>
       <r>   -6.1646    1.0000 </r>
       <r>   -6.1294    1.0000 </r>
       <r>   -6.0429    1.0000 </r>
       <r>   -5.9791    1.0000 </r>
       <r>   -5.9230    1.0000 </r>
       <r>   -5.8713    1.0000 </r>
       <r>   -5.8012    1.0000 </r>
       <r>   -5.6852    1.0000 </r>
       <r>   -5.6472    1.0000 </r>
       <r>   -5.5852    1.0000 </r>
       <r>   -5.4145    1.0000 </r>
       <r>   -5.2905    1.0000 </r>
       <r>   -5.1830    1.0000 </r>
       <r>   -5.0769    1.0000 </r>
       <r>   -4.9275    1.0000 </r>
       <r>   -4.8613    1.0000 </r>
       <r>   -4.6176    1.0000 </r>
       <r>   -4.5434    1.0000 </r>
       <r>   -4.4692    1.0000 </r>
       <r>   -4.3986    1.0000 </r>
       <r>   -4.2539    1.0000 </r>
       <r>   -4.1299    1.0000 </r>
       <r>   -3.8664    1.0000 </r>
       <r>   -3.7714    0.9999 </r>
       <r>   -3.5669    0.9851 </r>
       <r>   -3.5003    0.9555 </r>
       <r>   -3.1628    0.2466 </r>
       <r>   -2.9226    0.0086 </r>
       <r>   -2.9052    0.0061 </r>
       <r>   -2.8114    0.0008 </r>
       <r>   -2.6304    0.0000 </r>
       <r>   -2.5196    0.0000 </r>
       <r>   -2.3691    0.0000 </r>
       <r>   -2.2396    0.0000 </r>
       <r>   -2.0840    0.0000 </r>
       <r>   -2.0441    0.0000 </r>
       <r>   -1.9201    0.0000 </r>
       <r>   -1.8066    0.0000 </r>
       <r>   -1.6260    0.0000 </r>
       <r>   -1.4543    0.0000 </r>
       <r>   -1.3885    0.0000 </r>
       <r>   -1.2458    0.0000 </r>
       <r>   -1.0769    0.0000 </r>
       <r>   -1.0489    0.0000 </r>
       <r>   -0.9834    0.0000 </r>
       <r>   -0.9231    0.0000 </r>
       <r>   -0.8827    0.0000 </r>
       <r>   -0.8410    0.0000 </r>
       <r>   -0.7130    0.0000 </r>
       <r>   -0.6470    0.0000 </r>
       <r>   -0.6247    0.0000 </r>
       <r>   -0.5908    0.0000 </r>
       <r>   -0.3399    0.0000 </r>
       <r>   -0.2285    0.0000 </r>
       <r>   -0.1890    0.0000 </r>
       <r>    0.0284    0.0000 </r>
       <r>    0.2536    0.0000 </r>
       <r>    0.4071    0.0000 </r>
       <r>    0.6239    0.0000 </r>
       <r>    0.8388    0.0000 </r>
       <r>    0.9487    0.0000 </r>
       <r>    1.0270    0.0000 </r>
       <r>    1.3362    0.0000 </r>
       <r>    1.4434    0.0000 </r>
       <r>    2.1342    0.0000 </r>
       <r>    2.2872    0.0000 </r>
       <r>    2.4027    0.0000 </r>
      </set>
      <set comment="kpoint 32">
       <r>  -17.5078    1.0000 </r>
       <r>  -17.1702    1.0000 </r>
       <r>  -17.0542    1.0000 </r>
       <r>  -16.5927    1.0000 </r>
       <r>  -16.3819    1.0000 </r>
       <r>  -16.3097    1.0000 </r>
       <r>  -16.2927    1.0000 </r>
       <r>  -16.2178    1.0000 </r>
       <r>  -16.0709    1.0000 </r>
       <r>  -16.0171    1.0000 </r>
       <r>  -15.9633    1.0000 </r>
       <r>  -15.8613    1.0000 </r>
       <r>  -15.8181    1.0000 </r>
       <r>  -15.7634    1.0000 </r>
       <r>  -15.6361    1.0000 </r>
       <r>  -15.5628    1.0000 </r>
       <r>  -15.4376    1.0000 </r>
       <r>  -15.4008    1.0000 </r>
       <r>   -9.6780    1.0000 </r>
       <r>   -9.5012    1.0000 </r>
       <r>   -9.3397    1.0000 </r>
       <r>   -8.8796    1.0000 </r>
       <r>   -8.7568    1.0000 </r>
       <r>   -8.5852    1.0000 </r>
       <r>   -8.5518    1.0000 </r>
       <r>   -8.4519    1.0000 </r>
       <r>   -8.4044    1.0000 </r>
       <r>   -8.3489    1.0000 </r>
       <r>   -8.2766    1.0000 </r>
       <r>   -8.2497    1.0000 </r>
       <r>   -8.1685    1.0000 </r>
       <r>   -8.1307    1.0000 </r>
       <r>   -8.0349    1.0000 </r>
       <r>   -7.9207    1.0000 </r>
       <r>   -7.7915    1.0000 </r>
       <r>   -7.5885    1.0000 </r>
       <r>   -7.4357    1.0000 </r>
       <r>   -7.4173    1.0000 </r>
       <r>   -7.3572    1.0000 </r>
       <r>   -7.3243    1.0000 </r>
       <r>   -7.1594    1.0000 </r>
       <r>   -7.0810    1.0000 </r>
       <r>   -7.0381    1.0000 </r>
       <r>   -6.9019    1.0000 </r>
       <r>   -6.8606    1.0000 </r>
       <r>   -6.8254    1.0000 </r>
       <r>   -6.6845    1.0000 </r>
       <r>   -6.6085    1.0000 </r>
       <r>   -6.5586    1.0000 </r>
       <r>   -6.5009    1.0000 </r>
       <r>   -6.4767    1.0000 </r>
       <r>   -6.3177    1.0000 </r>
       <r>   -6.2618    1.0000 </r>
       <r>   -6.1983    1.0000 </r>
       <r>   -6.1758    1.0000 </r>
       <r>   -6.0466    1.0000 </r>
       <r>   -5.9654    1.0000 </r>
       <r>   -5.9383    1.0000 </r>
       <r>   -5.8300    1.0000 </r>
       <r>   -5.7253    1.0000 </r>
       <r>   -5.6656    1.0000 </r>
       <r>   -5.6353    1.0000 </r>
       <r>   -5.5165    1.0000 </r>
       <r>   -5.4009    1.0000 </r>
       <r>   -5.3134    1.0000 </r>
       <r>   -5.2369    1.0000 </r>
       <r>   -5.0759    1.0000 </r>
       <r>   -4.9880    1.0000 </r>
       <r>   -4.8580    1.0000 </r>
       <r>   -4.6164    1.0000 </r>
       <r>   -4.5120    1.0000 </r>
       <r>   -4.4458    1.0000 </r>
       <r>   -4.3772    1.0000 </r>
       <r>   -4.2454    1.0000 </r>
       <r>   -4.1949    1.0000 </r>
       <r>   -3.8843    1.0000 </r>
       <r>   -3.7561    0.9998 </r>
       <r>   -3.6212    0.9947 </r>
       <r>   -3.5117    0.9626 </r>
       <r>   -3.1105    0.1458 </r>
       <r>   -3.0020    0.0342 </r>
       <r>   -2.8925    0.0047 </r>
       <r>   -2.7905    0.0005 </r>
       <r>   -2.6050    0.0000 </r>
       <r>   -2.4705    0.0000 </r>
       <r>   -2.3428    0.0000 </r>
       <r>   -2.2209    0.0000 </r>
       <r>   -2.0812    0.0000 </r>
       <r>   -2.0229    0.0000 </r>
       <r>   -1.9045    0.0000 </r>
       <r>   -1.7693    0.0000 </r>
       <r>   -1.6881    0.0000 </r>
       <r>   -1.4768    0.0000 </r>
       <r>   -1.3924    0.0000 </r>
       <r>   -1.2889    0.0000 </r>
       <r>   -1.1098    0.0000 </r>
       <r>   -1.0228    0.0000 </r>
       <r>   -0.9951    0.0000 </r>
       <r>   -0.9165    0.0000 </r>
       <r>   -0.8780    0.0000 </r>
       <r>   -0.8457    0.0000 </r>
       <r>   -0.7471    0.0000 </r>
       <r>   -0.6856    0.0000 </r>
       <r>   -0.6124    0.0000 </r>
       <r>   -0.5409    0.0000 </r>
       <r>   -0.3616    0.0000 </r>
       <r>   -0.1952    0.0000 </r>
       <r>   -0.1561    0.0000 </r>
       <r>    0.0031    0.0000 </r>
       <r>    0.2626    0.0000 </r>
       <r>    0.5415    0.0000 </r>
       <r>    0.5968    0.0000 </r>
       <r>    0.8635    0.0000 </r>
       <r>    0.9524    0.0000 </r>
       <r>    1.0497    0.0000 </r>
       <r>    1.2617    0.0000 </r>
       <r>    1.3099    0.0000 </r>
       <r>    2.0969    0.0000 </r>
       <r>    2.2567    0.0000 </r>
       <r>    2.5627    0.0000 </r>
      </set>
      <set comment="kpoint 33">
       <r>  -17.4909    1.0000 </r>
       <r>  -17.2812    1.0000 </r>
       <r>  -16.9045    1.0000 </r>
       <r>  -16.6006    1.0000 </r>
       <r>  -16.4619    1.0000 </r>
       <r>  -16.3397    1.0000 </r>
       <r>  -16.2930    1.0000 </r>
       <r>  -16.1541    1.0000 </r>
       <r>  -16.0754    1.0000 </r>
       <r>  -16.0091    1.0000 </r>
       <r>  -15.9695    1.0000 </r>
       <r>  -15.8707    1.0000 </r>
       <r>  -15.8077    1.0000 </r>
       <r>  -15.7557    1.0000 </r>
       <r>  -15.6076    1.0000 </r>
       <r>  -15.5600    1.0000 </r>
       <r>  -15.4542    1.0000 </r>
       <r>  -15.4262    1.0000 </r>
       <r>   -9.7208    1.0000 </r>
       <r>   -9.4071    1.0000 </r>
       <r>   -9.2412    1.0000 </r>
       <r>   -8.9584    1.0000 </r>
       <r>   -8.8529    1.0000 </r>
       <r>   -8.7239    1.0000 </r>
       <r>   -8.5489    1.0000 </r>
       <r>   -8.4719    1.0000 </r>
       <r>   -8.4183    1.0000 </r>
       <r>   -8.2992    1.0000 </r>
       <r>   -8.2629    1.0000 </r>
       <r>   -8.1951    1.0000 </r>
       <r>   -8.1578    1.0000 </r>
       <r>   -8.0713    1.0000 </r>
       <r>   -7.9623    1.0000 </r>
       <r>   -7.8890    1.0000 </r>
       <r>   -7.7908    1.0000 </r>
       <r>   -7.6289    1.0000 </r>
       <r>   -7.5249    1.0000 </r>
       <r>   -7.4325    1.0000 </r>
       <r>   -7.3112    1.0000 </r>
       <r>   -7.2436    1.0000 </r>
       <r>   -7.1522    1.0000 </r>
       <r>   -7.1073    1.0000 </r>
       <r>   -7.0144    1.0000 </r>
       <r>   -6.9479    1.0000 </r>
       <r>   -6.8447    1.0000 </r>
       <r>   -6.7879    1.0000 </r>
       <r>   -6.6783    1.0000 </r>
       <r>   -6.6078    1.0000 </r>
       <r>   -6.5472    1.0000 </r>
       <r>   -6.5261    1.0000 </r>
       <r>   -6.3987    1.0000 </r>
       <r>   -6.3210    1.0000 </r>
       <r>   -6.3012    1.0000 </r>
       <r>   -6.2310    1.0000 </r>
       <r>   -6.1363    1.0000 </r>
       <r>   -6.0903    1.0000 </r>
       <r>   -6.0202    1.0000 </r>
       <r>   -5.9586    1.0000 </r>
       <r>   -5.8449    1.0000 </r>
       <r>   -5.8015    1.0000 </r>
       <r>   -5.7423    1.0000 </r>
       <r>   -5.6957    1.0000 </r>
       <r>   -5.6014    1.0000 </r>
       <r>   -5.4255    1.0000 </r>
       <r>   -5.2508    1.0000 </r>
       <r>   -5.1019    1.0000 </r>
       <r>   -5.0665    1.0000 </r>
       <r>   -4.8692    1.0000 </r>
       <r>   -4.7497    1.0000 </r>
       <r>   -4.6375    1.0000 </r>
       <r>   -4.4853    1.0000 </r>
       <r>   -4.4726    1.0000 </r>
       <r>   -4.3234    1.0000 </r>
       <r>   -4.2572    1.0000 </r>
       <r>   -4.2306    1.0000 </r>
       <r>   -3.9194    1.0000 </r>
       <r>   -3.7805    0.9999 </r>
       <r>   -3.6652    0.9979 </r>
       <r>   -3.5535    0.9811 </r>
       <r>   -3.1808    0.2884 </r>
       <r>   -2.9982    0.0322 </r>
       <r>   -2.8446    0.0017 </r>
       <r>   -2.7772    0.0003 </r>
       <r>   -2.5693    0.0000 </r>
       <r>   -2.4354    0.0000 </r>
       <r>   -2.3082    0.0000 </r>
       <r>   -2.2169    0.0000 </r>
       <r>   -2.0697    0.0000 </r>
       <r>   -2.0016    0.0000 </r>
       <r>   -1.9008    0.0000 </r>
       <r>   -1.7447    0.0000 </r>
       <r>   -1.7022    0.0000 </r>
       <r>   -1.4926    0.0000 </r>
       <r>   -1.3680    0.0000 </r>
       <r>   -1.3122    0.0000 </r>
       <r>   -1.1495    0.0000 </r>
       <r>   -1.0681    0.0000 </r>
       <r>   -0.9875    0.0000 </r>
       <r>   -0.9329    0.0000 </r>
       <r>   -0.8970    0.0000 </r>
       <r>   -0.8444    0.0000 </r>
       <r>   -0.7760    0.0000 </r>
       <r>   -0.6919    0.0000 </r>
       <r>   -0.6011    0.0000 </r>
       <r>   -0.4850    0.0000 </r>
       <r>   -0.4251    0.0000 </r>
       <r>   -0.2647    0.0000 </r>
       <r>   -0.0974    0.0000 </r>
       <r>    0.0547    0.0000 </r>
       <r>    0.2841    0.0000 </r>
       <r>    0.5902    0.0000 </r>
       <r>    0.6378    0.0000 </r>
       <r>    0.8591    0.0000 </r>
       <r>    0.9779    0.0000 </r>
       <r>    1.1099    0.0000 </r>
       <r>    1.1714    0.0000 </r>
       <r>    1.2517    0.0000 </r>
       <r>    2.1235    0.0000 </r>
       <r>    2.2836    0.0000 </r>
       <r>    2.3803    0.0000 </r>
      </set>
      <set comment="kpoint 34">
       <r>  -17.4615    1.0000 </r>
       <r>  -17.3521    1.0000 </r>
       <r>  -16.7371    1.0000 </r>
       <r>  -16.6702    1.0000 </r>
       <r>  -16.5602    1.0000 </r>
       <r>  -16.3435    1.0000 </r>
       <r>  -16.2924    1.0000 </r>
       <r>  -16.1406    1.0000 </r>
       <r>  -16.0342    1.0000 </r>
       <r>  -16.0072    1.0000 </r>
       <r>  -15.9804    1.0000 </r>
       <r>  -15.8772    1.0000 </r>
       <r>  -15.8058    1.0000 </r>
       <r>  -15.7374    1.0000 </r>
       <r>  -15.5808    1.0000 </r>
       <r>  -15.5650    1.0000 </r>
       <r>  -15.4628    1.0000 </r>
       <r>  -15.4554    1.0000 </r>
       <r>   -9.7522    1.0000 </r>
       <r>   -9.2554    1.0000 </r>
       <r>   -9.1506    1.0000 </r>
       <r>   -9.0928    1.0000 </r>
       <r>   -8.8982    1.0000 </r>
       <r>   -8.8536    1.0000 </r>
       <r>   -8.5558    1.0000 </r>
       <r>   -8.5088    1.0000 </r>
       <r>   -8.4047    1.0000 </r>
       <r>   -8.2719    1.0000 </r>
       <r>   -8.2546    1.0000 </r>
       <r>   -8.2079    1.0000 </r>
       <r>   -8.1680    1.0000 </r>
       <r>   -7.9931    1.0000 </r>
       <r>   -7.8843    1.0000 </r>
       <r>   -7.8605    1.0000 </r>
       <r>   -7.7756    1.0000 </r>
       <r>   -7.6584    1.0000 </r>
       <r>   -7.5154    1.0000 </r>
       <r>   -7.4889    1.0000 </r>
       <r>   -7.2575    1.0000 </r>
       <r>   -7.2330    1.0000 </r>
       <r>   -7.1950    1.0000 </r>
       <r>   -7.0936    1.0000 </r>
       <r>   -7.0009    1.0000 </r>
       <r>   -6.9648    1.0000 </r>
       <r>   -6.8535    1.0000 </r>
       <r>   -6.7690    1.0000 </r>
       <r>   -6.6412    1.0000 </r>
       <r>   -6.6075    1.0000 </r>
       <r>   -6.5808    1.0000 </r>
       <r>   -6.4557    1.0000 </r>
       <r>   -6.4099    1.0000 </r>
       <r>   -6.3132    1.0000 </r>
       <r>   -6.2776    1.0000 </r>
       <r>   -6.2507    1.0000 </r>
       <r>   -6.1774    1.0000 </r>
       <r>   -6.1248    1.0000 </r>
       <r>   -6.0394    1.0000 </r>
       <r>   -5.9929    1.0000 </r>
       <r>   -5.8600    1.0000 </r>
       <r>   -5.8069    1.0000 </r>
       <r>   -5.7966    1.0000 </r>
       <r>   -5.7296    1.0000 </r>
       <r>   -5.6310    1.0000 </r>
       <r>   -5.4833    1.0000 </r>
       <r>   -5.2028    1.0000 </r>
       <r>   -5.1324    1.0000 </r>
       <r>   -4.9363    1.0000 </r>
       <r>   -4.7759    1.0000 </r>
       <r>   -4.7049    1.0000 </r>
       <r>   -4.6104    1.0000 </r>
       <r>   -4.5367    1.0000 </r>
       <r>   -4.4846    1.0000 </r>
       <r>   -4.3325    1.0000 </r>
       <r>   -4.2487    1.0000 </r>
       <r>   -4.2026    1.0000 </r>
       <r>   -3.9390    1.0000 </r>
       <r>   -3.7955    0.9999 </r>
       <r>   -3.6964    0.9990 </r>
       <r>   -3.5849    0.9893 </r>
       <r>   -3.2250    0.4031 </r>
       <r>   -2.9862    0.0266 </r>
       <r>   -2.8144    0.0008 </r>
       <r>   -2.7800    0.0003 </r>
       <r>   -2.5517    0.0000 </r>
       <r>   -2.4195    0.0000 </r>
       <r>   -2.2898    0.0000 </r>
       <r>   -2.2249    0.0000 </r>
       <r>   -2.0588    0.0000 </r>
       <r>   -1.9961    0.0000 </r>
       <r>   -1.9006    0.0000 </r>
       <r>   -1.7529    0.0000 </r>
       <r>   -1.6838    0.0000 </r>
       <r>   -1.4883    0.0000 </r>
       <r>   -1.3687    0.0000 </r>
       <r>   -1.2984    0.0000 </r>
       <r>   -1.1781    0.0000 </r>
       <r>   -1.0889    0.0000 </r>
       <r>   -0.9928    0.0000 </r>
       <r>   -0.9458    0.0000 </r>
       <r>   -0.9131    0.0000 </r>
       <r>   -0.8330    0.0000 </r>
       <r>   -0.7705    0.0000 </r>
       <r>   -0.7063    0.0000 </r>
       <r>   -0.5979    0.0000 </r>
       <r>   -0.4754    0.0000 </r>
       <r>   -0.4286    0.0000 </r>
       <r>   -0.3251    0.0000 </r>
       <r>   -0.0868    0.0000 </r>
       <r>    0.0915    0.0000 </r>
       <r>    0.3262    0.0000 </r>
       <r>    0.5995    0.0000 </r>
       <r>    0.6140    0.0000 </r>
       <r>    0.8725    0.0000 </r>
       <r>    0.9956    0.0000 </r>
       <r>    1.1233    0.0000 </r>
       <r>    1.1606    0.0000 </r>
       <r>    1.2440    0.0000 </r>
       <r>    2.1987    0.0000 </r>
       <r>    2.2334    0.0000 </r>
       <r>    2.3522    0.0000 </r>
      </set>
     </set>
    </set>
   </array>
  </eigenvalues>
  <separator name="orbital magnetization" >
   <v name="MAGDIPOLOUT">      0.00000000      0.00000000      0.00000000</v>
  </separator>
 </calculation>
 <structure name="finalpos" >
  <crystal>
   <varray name="basis" >
    <v>       8.40564346       4.80562264       0.00000000 </v>
    <v>      -8.39709114       4.79061828       0.00000000 </v>
    <v>       0.00000000       0.00000000      30.00000000 </v>
   </varray>
   <i name="volume">   2418.64441695 </i>
   <varray name="rec_basis" >
    <v>       0.05942112       0.10415451       0.00000000 </v>
    <v>      -0.05960722       0.10426059       0.00000000 </v>
    <v>       0.00000000       0.00000000       0.03333333 </v>
   </varray>
  </crystal>
  <varray name="positions" >
   <v>       0.34663663       0.68641431      -0.00028371 </v>
   <v>       0.02290532      -0.01527730       0.00139772 </v>
   <v>       0.32488178       0.32894022       0.00082629 </v>
   <v>       0.96680655       0.33037402      -0.00119939 </v>
   <v>       0.33939183      -0.00387599       0.00026044 </v>
   <v>       0.65166604       0.00747017      -0.00007948 </v>
   <v>       0.03518404       0.67668487       0.00021960 </v>
   <v>       0.66135310       0.30217172       0.00072326 </v>
   <v>       0.64668684       0.68766888      -0.00167986 </v>
   <v>       0.10975331       0.21515720       0.95308386 </v>
   <v>       0.22578716       0.11395529       0.05103807 </v>
   <v>       0.11982445       0.55415550       0.94814439 </v>
   <v>       0.21687618       0.44410398       0.04480592 </v>
   <v>       0.11630279       0.88769734       0.94690503 </v>
   <v>       0.23310613       0.77740014       0.05507438 </v>
   <v>       0.44470703       0.22473946       0.94944261 </v>
   <v>       0.55311790       0.10967565       0.05731329 </v>
   <v>       0.43497048       0.55561111       0.94922361 </v>
   <v>       0.55447201       0.44647901       0.04590703 </v>
   <v>       0.44158484       0.88407116       0.94545282 </v>
   <v>       0.54762979       0.78046307       0.05422059 </v>
   <v>       0.76689935       0.21605936       0.94255423 </v>
   <v>       0.89325133       0.10414299       0.04563724 </v>
   <v>       0.77736915       0.55796433       0.95870402 </v>
   <v>       0.88471732       0.44752654       0.05302138 </v>
   <v>       0.78975839       0.90156412       0.95070208 </v>
   <v>       0.89257472       0.77687731       0.04858448 </v>
  </varray>
 </structure>
</modeling>
