unknown system                          
           1
     8.856996    5.104527    0.000000
    -8.856768    5.104136    0.000000
     0.000000    0.000000   30.000000
   V    Mo   W    S 
   3   3   3  18
Direct configuration=     1
   0.33333334  0.66666669  0.00000000
   0.00000000  0.00000000  0.00000000
   0.33333334  0.33333334  0.00000000
   1.00000000  0.33333334  0.00000000
   0.33333334  0.00000000  0.00000000
   0.66666669  0.00000000  0.00000000
   0.00000000  0.66666669  0.00000000
   0.66666669  0.33333334  0.00000000
   0.66666669  0.66666669  0.00000000
   0.11068511  0.22244981  0.95539999
   0.22244981  0.11068511  0.04460000
   0.11068511  0.55578315  0.95539999
   0.22244981  0.44401845  0.04460000
   0.11068511  0.88911647  0.95539999
   0.22244981  0.77735180  0.04460000
   0.44401845  0.22244981  0.95539999
   0.55578315  0.11068511  0.04460000
   0.44401845  0.55578315  0.95539999
   0.55578315  0.44401845  0.04460000
   0.44401845  0.88911647  0.95539999
   0.55578315  0.77735180  0.04460000
   0.77735180  0.22244981  0.95539999
   0.88911647  0.11068511  0.04460000
   0.77735180  0.55578315  0.95539999
   0.88911647  0.44401845  0.04460000
   0.77735180  0.88911647  0.95539999
   0.88911647  0.77735180  0.04460000
unknown system                          
           1
     8.668428    4.998110    0.000000
    -8.668299    4.997891    0.000000
     0.000000    0.000000   30.000000
   V    Mo   W    S 
   3   3   3  18
Direct configuration=     2
   0.33332821  0.66739917 -0.00013779
   0.00031534  0.00151905  0.00016388
   0.33173907  0.33221974  0.00006676
   0.99900204  0.33200844  0.00009089
   0.33465812  0.00003403 -0.00002578
   0.66660371  0.00133183 -0.00019665
   0.00177836  0.66683084  0.00012537
   0.66647617  0.33008264 -0.00001971
   0.66623962  0.66822135 -0.00005121
   0.11317467  0.21995777  0.95302291
   0.21982796  0.11313528  0.04695943
   0.11520517  0.55816074  0.95189202
   0.22650413  0.44627212  0.04684138
   0.10814946  0.89028478  0.95206357
   0.22347243  0.77479308  0.04802037
   0.44295573  0.22509504  0.95200939
   0.55589349  0.11210619  0.04931158
   0.44084180  0.55403818  0.95308620
   0.55185381  0.44264363  0.04801832
   0.44213058  0.88424023  0.95191540
   0.55141688  0.77499440  0.04804227
   0.77715836  0.22252031  0.95064429
   0.89134873  0.10859539  0.04800443
   0.77758139  0.55529753  0.95079242
   0.88830454  0.44493540  0.04927492
   0.78161360  0.89001983  0.95194720
   0.89064110  0.78147744  0.04813802
unknown system                          
           1
     8.486869    4.898729    0.000000
    -8.486465    4.898032    0.000000
     0.000000    0.000000   30.000000
   V    Mo   W    S 
   3   3   3  18
Direct configuration=     3
   0.33332266  0.66766871 -0.00015354
   0.00033057  0.00179918  0.00019044
   0.33136156  0.33192663  0.00012621
   0.99813390  0.33165379  0.00014196
   0.33533604  0.00012178 -0.00007548
   0.66657585  0.00211356 -0.00021354
   0.00209417  0.66677320  0.00008200
   0.66658243  0.32894509 -0.00002784
   0.66633840  0.66870584 -0.00004893
   0.11321604  0.21992957  0.95303415
   0.21979235  0.11317283  0.04692072
   0.11522745  0.55835187  0.95190630
   0.22657808  0.44632530  0.04675751
   0.10799268  0.89009133  0.95213913
   0.22330137  0.77461482  0.04806410
   0.44314691  0.22525979  0.95201944
   0.55603252  0.11232034  0.04944903
   0.44099784  0.55411707  0.95314390
   0.55203233  0.44271738  0.04787030
   0.44204653  0.88408418  0.95184301
   0.55142864  0.77480630  0.04800824
   0.77701860  0.22262446  0.95048572
   0.89139210  0.10852366  0.04806196
   0.77755528  0.55528474  0.95093891
   0.88816849  0.44505424  0.04930079
   0.78160123  0.88986359  0.95195403
   0.89061044  0.78136520  0.04808140
unknown system                          
           1
     8.286952    4.778216    0.000000
    -8.287638    4.779407    0.000000
     0.000000    0.000000   30.000000
   V    Mo   W    S 
   3   3   3  18
Direct configuration=     4
   0.33320471  0.66879862 -0.00014692
  -0.00004107  0.00215902  0.00020935
   0.33036655  0.33103808  0.00031386
   0.99403575  0.33051354  0.00027059
   0.33816228  0.00045536 -0.00022771
   0.66652500  0.00557695 -0.00019452
   0.00271203  0.66623133 -0.00011153
   0.66747010  0.32482867 -0.00003522
   0.66712632  0.67044697 -0.00000892
   0.11367047  0.21950787  0.95179301
   0.21936344  0.11355246  0.04807221
   0.11640771  0.55879118  0.95050188
   0.22748816  0.44690224  0.04771430
   0.10754001  0.89065058  0.95101889
   0.22397035  0.77410559  0.04969502
   0.44271306  0.22589138  0.95061090
   0.55607189  0.11215311  0.05162904
   0.43990354  0.55351808  0.95199851
   0.55136537  0.44217624  0.04871863
   0.44148383  0.88276697  0.95011331
   0.55038550  0.77439914  0.04933129
   0.77703474  0.22257785  0.94818188
   0.89176391  0.10780238  0.04970962
   0.77738649  0.55506390  0.94993008
   0.88795448  0.44514309  0.05103575
   0.78276844  0.89069884  0.95051932
   0.89138140  0.78246501  0.04935729
unknown system                          
           1
     8.295545    4.777614    0.000000
    -8.296424    4.779139    0.000000
     0.000000    0.000000   30.000000
   V    Mo   W    S 
   3   3   3  18
Direct configuration=     5
   0.33298852  0.67080629 -0.00000539
  -0.00134402  0.00188424  0.00006960
   0.32878939  0.32985233  0.00051833
   0.98592738  0.32844533  0.00032945
   0.34361027  0.00110766 -0.00038605
   0.66664690  0.01227682 -0.00010018
   0.00389023  0.66513218 -0.00037913
   0.66939171  0.31698727 -0.00001093
   0.66844467  0.67444764  0.00006487
   0.11356924  0.21934500  0.95020757
   0.21924226  0.11343288  0.04968840
   0.11752235  0.55833859  0.94868480
   0.22721041  0.44709546  0.04891592
   0.10807085  0.89176300  0.94974769
   0.22501347  0.77397694  0.05170752
   0.44261489  0.22620147  0.94885108
   0.55588833  0.11146587  0.05473433
   0.43870168  0.55292654  0.95049463
   0.55118286  0.44125989  0.04948900
   0.44169367  0.88187785  0.94764821
   0.54967841  0.77501068  0.05092810
   0.77720026  0.22194974  0.94471003
   0.89157235  0.10735247  0.05195558
   0.77676294  0.55391028  0.94894598
   0.88738744  0.44495134  0.05343549
   0.78379416  0.89236701  0.94870322
   0.89276383  0.78404966  0.05105177
unknown system                          
           1
     8.288795    4.774024    0.000000
    -8.288452    4.773427    0.000000
     0.000000    0.000000   30.000000
   V    Mo   W    S 
   3   3   3  18
Direct configuration=     6
   0.33302765  0.67135785 -0.00006127
  -0.00191601  0.00153477  0.00008983
   0.32808875  0.32948245  0.00056382
   0.98479814  0.32831123  0.00024301
   0.34452808  0.00103471 -0.00036097
   0.66681920  0.01243633 -0.00015495
   0.00441098  0.66461001 -0.00037872
   0.66964683  0.31607066  0.00003070
   0.66850029  0.67629416  0.00007496
   0.11303421  0.21954780  0.95022222
   0.21940804  0.11291597  0.04964243
   0.11721425  0.55769638  0.94865889
   0.22586360  0.44662659  0.04882015
   0.10900982  0.89197968  0.94986881
   0.22513666  0.77420486  0.05177614
   0.44338805  0.22605685  0.94888042
   0.55578029  0.11124318  0.05514056
   0.43880618  0.55315821  0.95054103
   0.55218560  0.44104814  0.04909881
   0.44242940  0.88240932  0.94748369
   0.55015432  0.77597530  0.05098753
   0.77713806  0.22155317  0.94421961
   0.89105532  0.10777976  0.05203364
   0.77616472  0.55294793  0.94929222
   0.88684243  0.44477293  0.05364136
   0.78352125  0.89298273  0.94860505
   0.89317837  0.78418348  0.05104096
unknown system                          
           1
     8.294870    4.776831    0.000000
    -8.294346    4.775920    0.000000
     0.000000    0.000000   30.000000
   V    Mo   W    S 
   3   3   3  18
Direct configuration=     7
   0.33318992  0.67213508 -0.00011620
  -0.00264284  0.00134976  0.00012692
   0.32702329  0.32880710  0.00064287
   0.98298154  0.32809563  0.00018477
   0.34604602  0.00113676 -0.00033514
   0.66693349  0.01300461 -0.00015278
   0.00517027  0.66383265 -0.00039563
   0.67007171  0.31395765  0.00005140
   0.66846232  0.67888693  0.00010879
   0.11263938  0.21963038  0.95018140
   0.21947855  0.11244371  0.04961798
   0.11712327  0.55725860  0.94853282
   0.22485498  0.44631100  0.04871943
   0.10970559  0.89212202  0.94999175
   0.22530969  0.77425710  0.05193723
   0.44391984  0.22594724  0.94886369
   0.55584111  0.11100455  0.05553123
   0.43883860  0.55338536  0.95055141
   0.55305311  0.44104008  0.04868456
   0.44290075  0.88266864  0.94722458
   0.55034795  0.77662726  0.05117921
   0.77695995  0.22122429  0.94373429
   0.89076214  0.10811272  0.05217491
   0.77562203  0.55232852  0.94967993
   0.88646745  0.44468278  0.05389636
   0.78358022  0.89359961  0.94833928
   0.89357413  0.78436444  0.05104485
unknown system                          
           1
     8.298503    4.777634    0.000000
    -8.297797    4.776407    0.000000
     0.000000    0.000000   30.000000
   V    Mo   W    S 
   3   3   3  18
Direct configuration=     8
   0.33330330  0.67234848 -0.00014276
  -0.00286652  0.00138643  0.00013437
   0.32660191  0.32852146  0.00067346
   0.98277316  0.32814148  0.00016131
   0.34635597  0.00114126 -0.00033551
   0.66696226  0.01277939 -0.00017125
   0.00549656  0.66356745 -0.00040007
   0.67009750  0.31357157  0.00006827
   0.66830511  0.67976904  0.00011532
   0.11256090  0.21963708  0.95021660
   0.21947912  0.11230010  0.04955374
   0.11711508  0.55716161  0.94854054
   0.22462323  0.44624572  0.04863351
   0.10985543  0.89210391  0.95010061
   0.22532729  0.77424591  0.05193050
   0.44406701  0.22591879  0.94892333
   0.55588130  0.11094005  0.05556239
   0.43889782  0.55348444  0.95060958
   0.55332835  0.44113316  0.04849059
   0.44299593  0.88273248  0.94722391
   0.55033143  0.77674654  0.05122978
   0.77690406  0.22111100  0.94369471
   0.89073101  0.10822446  0.05215329
   0.77546647  0.55224516  0.94987913
   0.88636408  0.44466935  0.05389709
   0.78365098  0.89373815  0.94828664
   0.89360570  0.78435000  0.05097083
unknown system                          
           1
     8.301550    4.778578    0.000000
    -8.300448    4.776662    0.000000
     0.000000    0.000000   30.000000
   V    Mo   W    S 
   3   3   3  18
Direct configuration=     9
   0.33340700  0.67267674 -0.00017167
  -0.00319350  0.00134972  0.00013657
   0.32606207  0.32816838  0.00071532
   0.98215542  0.32809223  0.00013125
   0.34693983  0.00115856 -0.00034042
   0.66702739  0.01282050 -0.00019370
   0.00588038  0.66322480 -0.00041646
   0.67022723  0.31283521  0.00009165
   0.66824157  0.68096949  0.00012514
   0.11242673  0.21964680  0.95019090
   0.21947762  0.11211051  0.04955201
   0.11712076  0.55699107  0.94847067
   0.22425317  0.44614289  0.04859114
   0.11010361  0.89215553  0.95016325
   0.22539827  0.77424506  0.05201722
   0.44427378  0.22589276  0.94890803
   0.55590600  0.11083164  0.05575821
   0.43891160  0.55357782  0.95060815
   0.55368181  0.44116811  0.04830242
   0.44316483  0.88280242  0.94710842
   0.55033421  0.77697517  0.05135163
   0.77685144  0.22093654  0.94347094
   0.89064981  0.10835305  0.05222972
   0.77523383  0.55202780  0.95005714
   0.88618987  0.44463185  0.05401682
   0.78374978  0.89400255  0.94815266
   0.89373992  0.78442725  0.05097290
unknown system                          
           1
     8.293255    4.774291    0.000000
    -8.292304    4.772639    0.000000
     0.000000    0.000000   30.000000
   V    Mo   W    S 
   3   3   3  18
Direct configuration=    10
   0.33368043  0.67319144 -0.00021332
  -0.00369547  0.00156607  0.00016173
   0.32511820  0.32746569  0.00078686
   0.98163805  0.32816579  0.00009391
   0.34769349  0.00122162 -0.00033660
   0.66704714  0.01244594 -0.00020731
   0.00668059  0.66261590 -0.00042038
   0.67028013  0.31182551  0.00011587
   0.66780971  0.68282326  0.00014559
   0.11232729  0.21964811  0.95020962
   0.21948130  0.11182156  0.04945258
   0.11717952  0.55682768  0.94843995
   0.22391503  0.44606530  0.04844349
   0.11036535  0.89211465  0.95036615
   0.22546366  0.77421399  0.05203202
   0.44451883  0.22583781  0.94900642
   0.55599165  0.11066599  0.05583713
   0.43901081  0.55376045  0.95069556
   0.55417833  0.44138682  0.04791437
   0.44328907  0.88288111  0.94706073
   0.55019924  0.77715740  0.05150790
   0.77673168  0.22072739  0.94336555
   0.89063272  0.10855049  0.05222503
   0.77493462  0.55194280  0.95046437
   0.88602264  0.44461380  0.05404535
   0.78395229  0.89429139  0.94798342
   0.89376815  0.78438649  0.05082393
unknown system                          
           1
     8.307310    4.781066    0.000000
    -8.305803    4.778447    0.000000
     0.000000    0.000000   30.000000
   V    Mo   W    S 
   3   3   3  18
Direct configuration=    11
   0.33337799  0.67278204 -0.00018502
  -0.00326059  0.00111967  0.00015055
   0.32584322  0.32800682  0.00073396
   0.98182355  0.32810817  0.00013496
   0.34716205  0.00120616 -0.00033027
   0.66700187  0.01289822 -0.00017839
   0.00590615  0.66318608 -0.00042145
   0.67024951  0.31239930  0.00010358
   0.66841643  0.68159243  0.00014336
   0.11234546  0.21964120  0.95023421
   0.21950524  0.11204618  0.04950142
   0.11702214  0.55693898  0.94849235
   0.22401385  0.44605158  0.04853981
   0.11026863  0.89217710  0.95020502
   0.22539217  0.77424412  0.05200027
   0.44440838  0.22584271  0.94894661
   0.55591828  0.11081388  0.05577590
   0.43898010  0.55365437  0.95065160
   0.55389609  0.44118025  0.04818939
   0.44325505  0.88288403  0.94709070
   0.55046622  0.77707004  0.05133256
   0.77678882  0.22088353  0.94340475
   0.89058774  0.10841454  0.05221064
   0.77512417  0.55187702  0.95015234
   0.88611447  0.44463825  0.05401753
   0.78376741  0.89406918  0.94813738
   0.89384006  0.78448858  0.05096614
unknown system                          
           1
     8.308705    4.781533    0.000000
    -8.307134    4.778804    0.000000
     0.000000    0.000000   30.000000
   V    Mo   W    S 
   3   3   3  18
Direct configuration=    12
   0.33403745  0.67379095 -0.00026270
  -0.00434982  0.00187235  0.00017960
   0.32397274  0.32663866  0.00086734
   0.98100814  0.32815907  0.00003675
   0.34859316  0.00128523 -0.00033694
   0.66717006  0.01206366 -0.00023962
   0.00760572  0.66187964 -0.00042311
   0.67040433  0.31076478  0.00014214
   0.66731465  0.68488864  0.00016113
   0.11221695  0.21964690  0.95019065
   0.21944869  0.11147977  0.04938742
   0.11728797  0.55660756  0.94835813
   0.22354025  0.44598228  0.04830995
   0.11063403  0.89209338  0.95056964
   0.22555497  0.77417792  0.05210198
   0.44478210  0.22580849  0.94906960
   0.55608080  0.11044822  0.05599999
   0.43909737  0.55394278  0.95075866
   0.55471902  0.44163768  0.04749444
   0.44343257  0.88293805  0.94695973
   0.54998536  0.77738841  0.05173983
   0.77662551  0.22047039  0.94319893
   0.89062760  0.10877078  0.05226532
   0.77457820  0.55185884  0.95090079
   0.88582021  0.44457683  0.05413075
   0.78422624  0.89468167  0.94775530
   0.89380016  0.78436154  0.05068422
unknown system                          
           1
     8.290563    4.770726    0.000000
    -8.293516    4.775860    0.000000
     0.000000    0.000000   30.000000
   V    Mo   W    S 
   3   3   3  18
Direct configuration=    13
   0.33415281  0.67396892 -0.00027504
  -0.00455193  0.00198362  0.00018221
   0.32360785  0.32638856  0.00089242
   0.98084949  0.32813971  0.00001707
   0.34886298  0.00130649 -0.00033594
   0.66719848  0.01195851 -0.00024737
   0.00785332  0.66166280 -0.00041971
   0.67044129  0.31050633  0.00015395
   0.66718749  0.68539477  0.00016503
   0.11219319  0.21965082  0.95017976
   0.21943609  0.11138403  0.04937266
   0.11731892  0.55653479  0.94832937
   0.22343479  0.44595157  0.04827190
   0.11071127  0.89208373  0.95062821
   0.22557775  0.77416698  0.05212487
   0.44485789  0.22580524  0.94908777
   0.55610804  0.11038397  0.05604702
   0.43913236  0.55399088  0.95077803
   0.55485808  0.44171637  0.04736948
   0.44348173  0.88295765  0.94692722
   0.54991989  0.77747007  0.05180617
   0.77660022  0.22039541  0.94314658
   0.89062503  0.10883728  0.05228272
   0.77448339  0.55185284  0.95102279
   0.88576332  0.44456518  0.05415797
   0.78430998  0.89480731  0.94768769
   0.89380074  0.78435065  0.05064707
unknown system                          
           1
     8.288305    4.768697    0.000000
    -8.291794    4.774764    0.000000
     0.000000    0.000000   30.000000
   V    Mo   W    S 
   3   3   3  18
Direct configuration=    14
   0.33292373  0.67261015 -0.00017368
  -0.00231506  0.00031548  0.00019276
   0.32737570  0.32904740  0.00065054
   0.98230700  0.32824193  0.00021409
   0.34635408  0.00071235 -0.00033611
   0.66642231  0.01269297 -0.00016841
   0.00570077  0.66444263 -0.00046741
   0.66963958  0.31258199  0.00008710
   0.66842602  0.68097331  0.00013904
   0.11229311  0.21955714  0.95034317
   0.21952011  0.11232156  0.04951634
   0.11708848  0.55729521  0.94863968
   0.22437738  0.44634907  0.04857728
   0.11019894  0.89238998  0.94994895
   0.22543519  0.77415074  0.05190230
   0.44417844  0.22582929  0.94883096
   0.55580848  0.11092366  0.05572040
   0.43866618  0.55360392  0.95062240
   0.55374186  0.44090404  0.04860334
   0.44290811  0.88253907  0.94723607
   0.55048199  0.77667406  0.05117594
   0.77691664  0.22105800  0.94347084
   0.89067823  0.10813549  0.05209375
   0.77526749  0.55166084  0.94982538
   0.88614670  0.44473022  0.05395005
   0.78371837  0.89382946  0.94827779
   0.89395461  0.78464451  0.05112734
unknown system                          
           1
     8.295873    4.769775    0.000000
    -8.301489    4.779535    0.000000
     0.000000    0.000000   30.000000
   V    Mo   W    S 
   3   3   3  18
Direct configuration=    15
   0.33245751  0.67215784 -0.00014990
  -0.00140380 -0.00064296  0.00020976
   0.32880574  0.33004797  0.00057814
   0.98252167  0.32827430  0.00029234
   0.34540997  0.00045697 -0.00032077
   0.66622161  0.01308682 -0.00015843
   0.00512540  0.66572843 -0.00048408
   0.66927574  0.31301044  0.00004293
   0.66887816  0.67960088  0.00008312
   0.11231594  0.21953654  0.95045053
   0.21965146  0.11265336  0.04955764
   0.11696848  0.55751652  0.94873145
   0.22461668  0.44646515  0.04865216
   0.11013305  0.89252401  0.94965699
   0.22537834  0.77414453  0.05187709
   0.44396483  0.22575059  0.94873946
   0.55565201  0.11098813  0.05565917
   0.43855019  0.55354695  0.95058043
   0.55355420  0.44075508  0.04897095
   0.44270607  0.88236619  0.94727990
   0.55062389  0.77647522  0.05103514
   0.77696673  0.22118191  0.94358101
   0.89068049  0.10791282  0.05198827
   0.77540439  0.55154566  0.94952306
   0.88621008  0.44484487  0.05384422
   0.78354872  0.89357430  0.94846422
   0.89399686  0.78471195  0.05131509
unknown system                          
           1
     8.295818    4.767941    0.000000
    -8.301594    4.777973    0.000000
     0.000000    0.000000   30.000000
   V    Mo   W    S 
   3   3   3  18
Direct configuration=    16
   0.33235607  0.67191438 -0.00010120
   0.00022047 -0.00273524  0.00019373
   0.33014782  0.33114242  0.00057790
   0.98152592  0.32806213  0.00029182
   0.34466367 -0.00002779 -0.00028188
   0.66578953  0.01392191 -0.00010119
   0.00598235  0.66838432 -0.00040728
   0.66830752  0.31194876  0.00010120
   0.66874732  0.67867532  0.00001086
   0.11260546  0.21979687  0.95084001
   0.22026422  0.11311702  0.04960534
   0.11657541  0.55751413  0.94875142
   0.22447793  0.44628526  0.04850043
   0.11054406  0.89274547  0.94913575
   0.22514848  0.77405579  0.05200015
   0.44383267  0.22547774  0.94869985
   0.55533055  0.11057653  0.05572353
   0.43865224  0.55363564  0.95061632
   0.55393394  0.44103743  0.04890371
   0.44261225  0.88230759  0.94721115
   0.55077567  0.77667566  0.05094946
   0.77690137  0.22094906  0.94353359
   0.89049437  0.10775019  0.05170327
   0.77508162  0.55139761  0.94970945
   0.88575673  0.44518676  0.05362917
   0.78366691  0.89394321  0.94862515
   0.89381990  0.78447627  0.05157819
unknown system                          
           1
     8.301790    4.768427    0.000000
    -8.309025    4.780992    0.000000
     0.000000    0.000000   30.000000
   V    Mo   W    S 
   3   3   3  18
Direct configuration=    17
   0.33189781  0.67132979 -0.00010306
   0.00217426 -0.00553856  0.00021212
   0.33214367  0.33268306  0.00048342
   0.98085191  0.32806604  0.00038959
   0.34285974 -0.00088888 -0.00026977
   0.66547296  0.01507415 -0.00013802
   0.00617821  0.67158921 -0.00043086
   0.66752767  0.31156862 -0.00001895
   0.66942164  0.67718381 -0.00015065
   0.11273768  0.21989765  0.95115660
   0.22072881  0.11362760  0.04970259
   0.11611466  0.55778917  0.94891189
   0.22434335  0.44620751  0.04850338
   0.11075659  0.89295640  0.94852955
   0.22501378  0.77403519  0.05208805
   0.44364033  0.22520997  0.94861164
   0.55487405  0.11036521  0.05579126
   0.43868343  0.55372794  0.95057115
   0.55406856  0.44105152  0.04924240
   0.44245836  0.88219566  0.94722579
   0.55108934  0.77666462  0.05077581
   0.77671956  0.22093682  0.94360606
   0.89039504  0.10745624  0.05139841
   0.77509798  0.55113334  0.94961005
   0.88555860  0.44550143  0.05338442
   0.78357441  0.89386708  0.94899512
   0.89383207  0.78452386  0.05192192
unknown system                          
           1
     8.295123    4.767623    0.000000
    -8.301424    4.778571    0.000000
     0.000000    0.000000   30.000000
   V    Mo   W    S 
   3   3   3  18
Direct configuration=    18
   0.33236973  0.67183234 -0.00014256
   0.00234592 -0.00630362  0.00022445
   0.33123894  0.33216350  0.00053997
   0.97973079  0.32807195  0.00034090
   0.34281039 -0.00143388 -0.00024557
   0.66545503  0.01527264 -0.00012697
   0.00792216  0.67223500 -0.00039517
   0.66730162  0.31003421  0.00003643
   0.66908007  0.67884876 -0.00016007
   0.11269023  0.21987451  0.95124869
   0.22077700  0.11331405  0.04969461
   0.11602121  0.55767554  0.94886388
   0.22371913  0.44596538  0.04834405
   0.11107602  0.89289838  0.94851358
   0.22502919  0.77395382  0.05222181
   0.44387359  0.22508167  0.94870113
   0.55471203  0.11004110  0.05592885
   0.43896325  0.55404341  0.95059773
   0.55465818  0.44139200  0.04881236
   0.44266115  0.88236372  0.94713356
   0.55100289  0.77700462  0.05092463
   0.77648189  0.22070744  0.94338159
   0.89038417  0.10752516  0.05126997
   0.77491236  0.55109591  0.95017965
   0.88519590  0.44566467  0.05334209
   0.78402680  0.89444102  0.94893566
   0.89377481  0.78445116  0.05183466
unknown system                          
           1
     8.291887    4.770805    0.000000
    -8.295873    4.777743    0.000000
     0.000000    0.000000   30.000000
   V    Mo   W    S 
   3   3   3  18
Direct configuration=    19
   0.33192055  0.67144330 -0.00008659
   0.00122135 -0.00479837  0.00019363
   0.33152641  0.33220272  0.00052399
   0.98087966  0.32803388  0.00036008
   0.34358154 -0.00053365 -0.00025799
   0.66572285  0.01499191 -0.00012429
   0.00578295  0.67041766 -0.00041732
   0.66796124  0.31168861  0.00003794
   0.66973295  0.67752111 -0.00009504
   0.11269490  0.21987923  0.95104871
   0.22060176  0.11339926  0.04966873
   0.11617514  0.55766129  0.94883856
   0.22427432  0.44616566  0.04851757
   0.11072357  0.89286396  0.94877151
   0.22494650  0.77407360  0.05203949
   0.44378822  0.22529529  0.94864060
   0.55502746  0.11043329  0.05578253
   0.43878951  0.55374296  0.95057681
   0.55411564  0.44112469  0.04910509
   0.44259840  0.88231604  0.94718869
   0.55103473  0.77678296  0.05081149
   0.77677042  0.22091893  0.94354673
   0.89036127  0.10754563  0.05151711
   0.77507731  0.55124957  0.94962917
   0.88558215  0.44539710  0.05347096
   0.78354806  0.89389646  0.94889907
   0.89377559  0.78450134  0.05181267
unknown system                          
           1
     8.290200    4.770290    0.000000
    -8.292457    4.774222    0.000000
     0.000000    0.000000   30.000000
   V    Mo   W    S 
   3   3   3  18
Direct configuration=    20
   0.33110268  0.67086153 -0.00004334
  -0.00117496 -0.00340487  0.00009310
   0.33136025  0.33199747  0.00049917
   0.98187949  0.32792658  0.00030769
   0.34537870  0.00082526 -0.00029875
   0.66630982  0.01520185 -0.00013506
   0.00235589  0.66767062 -0.00046572
   0.66914549  0.31355848  0.00002768
   0.67176881  0.67615982  0.00002588
   0.11268609  0.21996586  0.95084326
   0.22036977  0.11328005  0.04958971
   0.11607718  0.55750295  0.94879082
   0.22449605  0.44620060  0.04870152
   0.11047200  0.89279999  0.94927037
   0.22459973  0.77424734  0.05179349
   0.44401692  0.22556636  0.94864200
   0.55547214  0.11086437  0.05573996
   0.43886596  0.55353686  0.95063403
   0.55383860  0.44089917  0.04930167
   0.44277944  0.88244196  0.94723609
   0.55125941  0.77679404  0.05054893
   0.77707700  0.22113308  0.94359299
   0.89023218  0.10774348  0.05189212
   0.77508960  0.55123153  0.94895808
   0.88593467  0.44509405  0.05374423
   0.78296203  0.89343869  0.94881469
   0.89385951  0.78467734  0.05189530
unknown system                          
           1
     8.294793    4.771509    0.000000
    -8.297841    4.776813    0.000000
     0.000000    0.000000   30.000000
   V    Mo   W    S 
   3   3   3  18
Direct configuration=    21
   0.33092034  0.67103035 -0.00006654
  -0.00249140 -0.00340549  0.00010812
   0.32985337  0.33120641  0.00057092
   0.98137155  0.32800768  0.00026477
   0.34694167  0.00128566 -0.00024523
   0.66654449  0.01543117 -0.00013874
   0.00174403  0.66632545 -0.00042637
   0.66961612  0.31312687  0.00008247
   0.67276256  0.67746442  0.00008046
   0.11254329  0.21993505  0.95083352
   0.22022384  0.11283686  0.04944070
   0.11588427  0.55734170  0.94874773
   0.22398380  0.44604328  0.04858074
   0.11075313  0.89274745  0.94958204
   0.22448758  0.77426544  0.05172974
   0.44439962  0.22557799  0.94875965
   0.55563275  0.11079915  0.05585031
   0.43926811  0.55384380  0.95078693
   0.55430770  0.44107565  0.04891905
   0.44311598  0.88258668  0.94720024
   0.55131679  0.77701041  0.05047405
   0.77698791  0.22101498  0.94341135
   0.89021948  0.10804630  0.05190745
   0.77482371  0.55103355  0.94915011
   0.88582673  0.44502936  0.05382566
   0.78312123  0.89372785  0.94867588
   0.89405579  0.78482642  0.05189489
unknown system                          
           1
     8.302371    4.777058    0.000000
    -8.304124    4.780115    0.000000
     0.000000    0.000000   30.000000
   V    Mo   W    S 
   3   3   3  18
Direct configuration=    22
   0.33114316  0.67119923 -0.00008938
  -0.00174559 -0.00393735  0.00012850
   0.32985212  0.33126413  0.00057052
   0.98106868  0.32809066  0.00026008
   0.34638086  0.00083768 -0.00024834
   0.66633623  0.01534306 -0.00014368
   0.00279026  0.66721020 -0.00041966
   0.66924883  0.31250843  0.00007636
   0.67221118  0.67797005  0.00004740
   0.11254140  0.21991088  0.95089623
   0.22030830  0.11286728  0.04947880
   0.11589873  0.55739161  0.94875632
   0.22388387  0.44603024  0.04853481
   0.11086196  0.89277661  0.94942519
   0.22459757  0.77420427  0.05182080
   0.44433833  0.22549275  0.94876076
   0.55550273  0.11065732  0.05589517
   0.43924340  0.55391608  0.95076835
   0.55441192  0.44114510  0.04885483
   0.44306882  0.88254598  0.94717758
   0.55124944  0.77701815  0.05056054
   0.77689315  0.22094802  0.94337991
   0.89025668  0.10798367  0.05180341
   0.77479668  0.55101001  0.94935310
   0.88569938  0.44513613  0.05376819
   0.78333131  0.89391205  0.94868559
   0.89404503  0.78478220  0.05189852
unknown system                          
           1
     8.301680    4.775589    0.000000
    -8.303411    4.778605    0.000000
     0.000000    0.000000   30.000000
   V    Mo   W    S 
   3   3   3  18
Direct configuration=    23
   0.33092802  0.67131159 -0.00012736
  -0.00279501 -0.00380980  0.00011768
   0.32856189  0.33060603  0.00060778
   0.98099032  0.32832908  0.00017721
   0.34760812  0.00122754 -0.00025755
   0.66643367  0.01519042 -0.00017956
   0.00215208  0.66596695 -0.00041867
   0.66966182  0.31233043  0.00008544
   0.67298045  0.67913157  0.00010213
   0.11241458  0.21987819  0.95083103
   0.22020606  0.11254373  0.04940592
   0.11581187  0.55728443  0.94869824
   0.22358695  0.44599286  0.04850442
   0.11108650  0.89275587  0.94969152
   0.22458149  0.77421330  0.05179542
   0.44458515  0.22553106  0.94883563
   0.55571357  0.11064748  0.05603500
   0.43945173  0.55409859  0.95086717
   0.55467138  0.44123115  0.04860546
   0.44329254  0.88259996  0.94713589
   0.55123272  0.77711953  0.05055191
   0.77687682  0.22088302  0.94325386
   0.89026416  0.10820258  0.05188648
   0.77456554  0.55085053  0.94942521
   0.88565563  0.44505640  0.05391916
   0.78347264  0.89413506  0.94850969
   0.89422375  0.78490689  0.05194078
unknown system                          
           1
     8.301877    4.775961    0.000000
    -8.302951    4.777837    0.000000
     0.000000    0.000000   30.000000
   V    Mo   W    S 
   3   3   3  18
Direct configuration=    24
   0.33112069  0.67153790 -0.00017472
  -0.00259582 -0.00430021  0.00015048
   0.32769260  0.33017651  0.00064142
   0.98058284  0.32848915  0.00016874
   0.34776188  0.00105027 -0.00023683
   0.66632725  0.01504559 -0.00018267
   0.00295078  0.66623377 -0.00039153
   0.66951963  0.31141138  0.00012489
   0.67278937  0.68055613  0.00010601
   0.11235475  0.21983018  0.95087218
   0.22023437  0.11240427  0.04937185
   0.11581145  0.55729693  0.94869336
   0.22335134  0.44596536  0.04841815
   0.11128078  0.89274799  0.94970134
   0.22468328  0.77416417  0.05183424
   0.44465901  0.22546179  0.94890987
   0.55573196  0.11052044  0.05606641
   0.43954396  0.55426160  0.95092721
   0.55492502  0.44137944  0.04833477
   0.44333078  0.88258964  0.94710788