   27   27  100    1
  0.9710400E+02  0.1002848E-08  0.1002848E-08  0.3000000E-08  0.5000000E-15
  1.000000000000000E-004
  CAR 
 unknown system                          
    159     34    120
 
  0.0000000E+00  0.0000000E+00  0.0000000E+00  0.1562500E-01
    1      -17.796415   1.000000
    2      -16.748566   1.000000
    3      -16.654866   1.000000
    4      -16.571722   1.000000
    5      -16.512737   1.000000
    6      -16.462215   1.000000
    7      -16.394276   1.000000
    8      -16.313376   1.000000
    9      -16.217827   1.000000
   10      -16.161157   1.000000
   11      -16.063707   1.000000
   12      -16.019193   1.000000
   13      -15.866174   1.000000
   14      -15.605439   1.000000
   15      -15.565689   1.000000
   16      -15.462100   1.000000
   17      -15.370859   1.000000
   18      -15.240177   1.000000
   19       -9.305231   1.000000
   20       -9.084513   1.000000
   21       -8.962338   1.000000
   22       -8.902964   1.000000
   23       -8.812373   1.000000
   24       -8.742418   1.000000
   25       -8.624302   1.000000
   26       -8.600279   1.000000
   27       -8.508193   1.000000
   28       -8.401458   1.000000
   29       -8.340383   1.000000
   30       -8.289790   1.000000
   31       -8.233679   1.000000
   32       -8.109573   1.000000
   33       -8.012334   1.000000
   34       -7.952892   1.000000
   35       -7.909427   1.000000
   36       -7.796418   1.000000
   37       -7.680193   1.000000
   38       -7.515075   1.000000
   39       -7.484858   1.000000
   40       -7.446478   1.000000
   41       -7.277291   1.000000
   42       -7.166244   1.000000
   43       -7.133533   1.000000
   44       -6.998798   1.000000
   45       -6.847119   1.000000
   46       -6.813965   1.000000
   47       -6.639813   1.000000
   48       -6.612424   1.000000
   49       -6.568236   1.000000
   50       -6.535521   1.000000
   51       -6.499662   1.000000
   52       -6.415994   1.000000
   53       -6.314724   1.000000
   54       -6.259052   1.000000
   55       -6.209933   1.000000
   56       -6.186999   1.000000
   57       -6.078971   1.000000
   58       -5.920813   1.000000
   59       -5.717122   1.000000
   60       -5.570610   1.000000
   61       -5.523949   1.000000
   62       -5.428288   1.000000
   63       -5.233395   1.000000
   64       -5.126463   1.000000
   65       -5.036449   1.000000
   66       -4.971067   1.000000
   67       -4.889345   1.000000
   68       -4.857379   1.000000
   69       -4.812697   1.000000
   70       -4.750707   1.000000
   71       -4.640987   1.000000
   72       -4.611313   1.000000
   73       -4.486697   1.000000
   74       -4.337614   1.000000
   75       -4.293320   1.000000
   76       -4.119203   1.000000
   77       -3.836224   0.999706
   78       -3.583599   0.950560
   79       -3.525766   0.892764
   80       -3.368070   0.550248
   81       -3.297178   0.353832
   82       -2.872119   0.000362
   83       -2.745136   0.000009
   84       -2.614834   0.000000
   85       -2.527425   0.000000
   86       -2.476704   0.000000
   87       -2.368454   0.000000
   88       -2.241323   0.000000
   89       -2.225806   0.000000
   90       -2.074181   0.000000
   91       -2.049156   0.000000
   92       -1.396586   0.000000
   93       -1.318665   0.000000
   94       -1.262414   0.000000
   95       -1.114922   0.000000
   96       -1.053757   0.000000
   97       -1.004205   0.000000
   98       -0.851029   0.000000
   99       -0.715142   0.000000
  100       -0.692907   0.000000
  101       -0.626784   0.000000
  102       -0.536628   0.000000
  103       -0.496456   0.000000
  104       -0.339797   0.000000
  105       -0.219623   0.000000
  106       -0.128907   0.000000
  107       -0.072879   0.000000
  108       -0.000836   0.000000
  109        0.074754   0.000000
  110        0.280239   0.000000
  111        0.314091   0.000000
  112        0.597625   0.000000
  113        0.751647   0.000000
  114        0.786935   0.000000
  115        0.832711   0.000000
  116        1.038690   0.000000
  117        1.119732   0.000000
  118        1.639440   0.000000
  119        1.838093   0.000000
  120        2.148360   0.000000
 
  0.1250000E+00  0.2775558E-16  0.0000000E+00  0.3125000E-01
    1      -17.772647   1.000000
    2      -16.790050   1.000000
    3      -16.705407   1.000000
    4      -16.646759   1.000000
    5      -16.523048   1.000000
    6      -16.416761   1.000000
    7      -16.365537   1.000000
    8      -16.286967   1.000000
    9      -16.207445   1.000000
   10      -16.162568   1.000000
   11      -16.054649   1.000000
   12      -15.949790   1.000000
   13      -15.852186   1.000000
   14      -15.623267   1.000000
   15      -15.579153   1.000000
   16      -15.462178   1.000000
   17      -15.374585   1.000000
   18      -15.243740   1.000000
   19       -9.325397   1.000000
   20       -9.150761   1.000000
   21       -9.021650   1.000000
   22       -8.961324   1.000000
   23       -8.876652   1.000000
   24       -8.765574   1.000000
   25       -8.673408   1.000000
   26       -8.595630   1.000000
   27       -8.495466   1.000000
   28       -8.392358   1.000000
   29       -8.368478   1.000000
   30       -8.214743   1.000000
   31       -8.108215   1.000000
   32       -8.022996   1.000000
   33       -7.952861   1.000000
   34       -7.907156   1.000000
   35       -7.837203   1.000000
   36       -7.733622   1.000000
   37       -7.639848   1.000000
   38       -7.558898   1.000000
   39       -7.513070   1.000000
   40       -7.490828   1.000000
   41       -7.243764   1.000000
   42       -7.173189   1.000000
   43       -7.105028   1.000000
   44       -7.059570   1.000000
   45       -6.914911   1.000000
   46       -6.792760   1.000000
   47       -6.643035   1.000000
   48       -6.608350   1.000000
   49       -6.585362   1.000000
   50       -6.529421   1.000000
   51       -6.475130   1.000000
   52       -6.410560   1.000000
   53       -6.374869   1.000000
   54       -6.232734   1.000000
   55       -6.196766   1.000000
   56       -6.185750   1.000000
   57       -5.993129   1.000000
   58       -5.908892   1.000000
   59       -5.720785   1.000000
   60       -5.561079   1.000000
   61       -5.530234   1.000000
   62       -5.484617   1.000000
   63       -5.314571   1.000000
   64       -5.277606   1.000000
   65       -5.098012   1.000000
   66       -4.980533   1.000000
   67       -4.917067   1.000000
   68       -4.841250   1.000000
   69       -4.724050   1.000000
   70       -4.683255   1.000000
   71       -4.622282   1.000000
   72       -4.599964   1.000000
   73       -4.443667   1.000000
   74       -4.280937   1.000000
   75       -4.244421   1.000000
   76       -4.138740   1.000000
   77       -3.920663   0.999973
   78       -3.715900   0.995143
   79       -3.513596   0.876018
   80       -3.341424   0.475230
   81       -3.254550   0.249387
   82       -2.830911   0.000120
   83       -2.721020   0.000004
   84       -2.601308   0.000000
   85       -2.520835   0.000000
   86       -2.457803   0.000000
   87       -2.341799   0.000000
   88       -2.219023   0.000000
   89       -2.207261   0.000000
   90       -2.095709   0.000000
   91       -2.031591   0.000000
   92       -1.406450   0.000000
   93       -1.344705   0.000000
   94       -1.247605   0.000000
   95       -1.122028   0.000000
   96       -1.068960   0.000000
   97       -0.988330   0.000000
   98       -0.868741   0.000000
   99       -0.804881   0.000000
  100       -0.736388   0.000000
  101       -0.652479   0.000000
  102       -0.587985   0.000000
  103       -0.527281   0.000000
  104       -0.407886   0.000000
  105       -0.274056   0.000000
  106       -0.130613   0.000000
  107       -0.094928   0.000000
  108        0.002412   0.000000
  109        0.077814   0.000000
  110        0.257716   0.000000
  111        0.322290   0.000000
  112        0.573864   0.000000
  113        0.753469   0.000000
  114        0.816134   0.000000
  115        0.917045   0.000000
  116        1.078112   0.000000
  117        1.123920   0.000000
  118        1.681370   0.000000
  119        1.878137   0.000000
  120        2.182990   0.000000
 
  0.2500000E+00  0.5551115E-16  0.0000000E+00  0.3125000E-01
    1      -17.703387   1.000000
    2      -16.971142   1.000000
    3      -16.736600   1.000000
    4      -16.688882   1.000000
    5      -16.584097   1.000000
    6      -16.363815   1.000000
    7      -16.319504   1.000000
    8      -16.276598   1.000000
    9      -16.162666   1.000000
   10      -16.135677   1.000000
   11      -16.016779   1.000000
   12      -15.865842   1.000000
   13      -15.787787   1.000000
   14      -15.666220   1.000000
   15      -15.611795   1.000000
   16      -15.463085   1.000000
   17      -15.385830   1.000000
   18      -15.253317   1.000000
   19       -9.484318   1.000000
   20       -9.196953   1.000000
   21       -9.138868   1.000000
   22       -9.054177   1.000000
   23       -8.982001   1.000000
   24       -8.830569   1.000000
   25       -8.625117   1.000000
   26       -8.535722   1.000000
   27       -8.492988   1.000000
   28       -8.354778   1.000000
   29       -8.287707   1.000000
   30       -8.167568   1.000000
   31       -8.087566   1.000000
   32       -8.024332   1.000000
   33       -7.855565   1.000000
   34       -7.771467   1.000000
   35       -7.712775   1.000000
   36       -7.690364   1.000000
   37       -7.586312   1.000000
   38       -7.516134   1.000000
   39       -7.483723   1.000000
   40       -7.446063   1.000000
   41       -7.245179   1.000000
   42       -7.183279   1.000000
   43       -7.103056   1.000000
   44       -7.059889   1.000000
   45       -6.957025   1.000000
   46       -6.765508   1.000000
   47       -6.687570   1.000000
   48       -6.615834   1.000000
   49       -6.589828   1.000000
   50       -6.559476   1.000000
   51       -6.433670   1.000000
   52       -6.375334   1.000000
   53       -6.367546   1.000000
   54       -6.220735   1.000000
   55       -6.166381   1.000000
   56       -6.135502   1.000000
   57       -5.938149   1.000000
   58       -5.870163   1.000000
   59       -5.722853   1.000000
   60       -5.678937   1.000000
   61       -5.617137   1.000000
   62       -5.563947   1.000000
   63       -5.535340   1.000000
   64       -5.404957   1.000000
   65       -5.235553   1.000000
   66       -4.995417   1.000000
   67       -4.846343   1.000000
   68       -4.758799   1.000000
   69       -4.700143   1.000000
   70       -4.618507   1.000000
   71       -4.575966   1.000000
   72       -4.536438   1.000000
   73       -4.386368   1.000000
   74       -4.270172   1.000000
   75       -4.173821   1.000000
   76       -4.162731   1.000000
   77       -3.997797   0.999998
   78       -3.914195   0.999967
   79       -3.510792   0.871913
   80       -3.327557   0.436368
   81       -3.190329   0.129127
   82       -2.753010   0.000012
   83       -2.657610   0.000000
   84       -2.556581   0.000000
   85       -2.500661   0.000000
   86       -2.424660   0.000000
   87       -2.276959   0.000000
   88       -2.201430   0.000000
   89       -2.150181   0.000000
   90       -2.084342   0.000000
   91       -1.990590   0.000000
   92       -1.434211   0.000000
   93       -1.395450   0.000000
   94       -1.249011   0.000000
   95       -1.167530   0.000000
   96       -1.090125   0.000000
   97       -1.000675   0.000000
   98       -0.963517   0.000000
   99       -0.895362   0.000000
  100       -0.839412   0.000000
  101       -0.736583   0.000000
  102       -0.671915   0.000000
  103       -0.596786   0.000000
  104       -0.513811   0.000000
  105       -0.396814   0.000000
  106       -0.212397   0.000000
  107       -0.112509   0.000000
  108       -0.014648   0.000000
  109        0.057600   0.000000
  110        0.181098   0.000000
  111        0.385018   0.000000
  112        0.519461   0.000000
  113        0.777847   0.000000
  114        0.875403   0.000000
  115        1.026874   0.000000
  116        1.142523   0.000000
  117        1.220843   0.000000
  118        1.800191   0.000000
  119        1.991272   0.000000
  120        2.285679   0.000000
 
  0.3750000E+00  0.0000000E+00  0.0000000E+00  0.3125000E-01
    1      -17.598652   1.000000
    2      -17.167707   1.000000
    3      -16.771008   1.000000
    4      -16.685625   1.000000
    5      -16.629997   1.000000
    6      -16.345586   1.000000
    7      -16.325786   1.000000
    8      -16.264351   1.000000
    9      -16.094159   1.000000
   10      -16.065440   1.000000
   11      -15.983256   1.000000
   12      -15.845777   1.000000
   13      -15.764292   1.000000
   14      -15.681810   1.000000
   15      -15.613054   1.000000
   16      -15.465120   1.000000
   17      -15.402856   1.000000
   18      -15.264325   1.000000
   19       -9.662589   1.000000
   20       -9.238567   1.000000
   21       -9.227448   1.000000
   22       -9.086198   1.000000
   23       -9.034220   1.000000
   24       -8.880566   1.000000
   25       -8.510958   1.000000
   26       -8.469862   1.000000
   27       -8.444011   1.000000
   28       -8.295428   1.000000
   29       -8.234857   1.000000
   30       -8.164671   1.000000
   31       -8.125888   1.000000
   32       -8.085790   1.000000
   33       -7.917828   1.000000
   34       -7.818300   1.000000
   35       -7.756633   1.000000
   36       -7.576423   1.000000
   37       -7.527074   1.000000
   38       -7.449771   1.000000
   39       -7.404154   1.000000
   40       -7.314016   1.000000
   41       -7.226561   1.000000
   42       -7.179260   1.000000
   43       -7.085632   1.000000
   44       -6.974302   1.000000
   45       -6.845231   1.000000
   46       -6.774358   1.000000
   47       -6.703838   1.000000
   48       -6.622383   1.000000
   49       -6.565984   1.000000
   50       -6.473384   1.000000
   51       -6.400079   1.000000
   52       -6.367145   1.000000
   53       -6.331185   1.000000
   54       -6.197658   1.000000
   55       -6.138656   1.000000
   56       -6.077917   1.000000
   57       -5.959374   1.000000
   58       -5.924074   1.000000
   59       -5.900910   1.000000
   60       -5.845195   1.000000
   61       -5.720570   1.000000
   62       -5.660504   1.000000
   63       -5.586440   1.000000
   64       -5.450413   1.000000
   65       -5.268413   1.000000
   66       -4.950685   1.000000
   67       -4.844787   1.000000
   68       -4.776619   1.000000
   69       -4.700790   1.000000
   70       -4.663457   1.000000
   71       -4.552366   1.000000
   72       -4.520821   1.000000
   73       -4.383145   1.000000
   74       -4.213764   1.000000
   75       -4.164136   1.000000
   76       -4.109137   1.000000
   77       -4.071670   1.000000
   78       -3.934991   0.999982
   79       -3.490312   0.839077
   80       -3.339122   0.468753
   81       -3.152919   0.081499
   82       -2.707851   0.000003
   83       -2.590406   0.000000
   84       -2.526179   0.000000
   85       -2.430174   0.000000
   86       -2.399764   0.000000
   87       -2.241036   0.000000
   88       -2.176892   0.000000
   89       -2.127039   0.000000
   90       -1.981931   0.000000
   91       -1.923754   0.000000
   92       -1.486884   0.000000
   93       -1.450942   0.000000
   94       -1.298127   0.000000
   95       -1.250894   0.000000
   96       -1.154170   0.000000
   97       -1.055496   0.000000
   98       -0.971377   0.000000
   99       -0.940008   0.000000
  100       -0.925142   0.000000
  101       -0.852894   0.000000
  102       -0.745128   0.000000
  103       -0.687485   0.000000
  104       -0.531536   0.000000
  105       -0.491563   0.000000
  106       -0.319480   0.000000
  107       -0.122546   0.000000
  108       -0.043409   0.000000
  109        0.002749   0.000000
  110        0.114903   0.000000
  111        0.412842   0.000000
  112        0.492958   0.000000
  113        0.814736   0.000000
  114        0.925169   0.000000
  115        1.051124   0.000000
  116        1.245435   0.000000
  117        1.335910   0.000000
  118        1.979371   0.000000
  119        2.160689   0.000000
  120        2.451067   0.000000
 
  0.5000000E+00  0.1110223E-15  0.0000000E+00  0.1562500E-01
    1      -17.519897   1.000000
    2      -17.279310   1.000000
    3      -16.784551   1.000000
    4      -16.678492   1.000000
    5      -16.648889   1.000000
    6      -16.347043   1.000000
    7      -16.329060   1.000000
    8      -16.260293   1.000000
    9      -16.061597   1.000000
   10      -16.016551   1.000000
   11      -15.967676   1.000000
   12      -15.857406   1.000000
   13      -15.786126   1.000000
   14      -15.691992   1.000000
   15      -15.580539   1.000000
   16      -15.465342   1.000000
   17      -15.414548   1.000000
   18      -15.269310   1.000000
   19       -9.730675   1.000000
   20       -9.271848   1.000000
   21       -9.252733   1.000000
   22       -9.104626   1.000000
   23       -9.028086   1.000000
   24       -8.893562   1.000000
   25       -8.464560   1.000000
   26       -8.424290   1.000000
   27       -8.397921   1.000000
   28       -8.272774   1.000000
   29       -8.237821   1.000000
   30       -8.164243   1.000000
   31       -8.138966   1.000000
   32       -8.112538   1.000000
   33       -7.948797   1.000000
   34       -7.896468   1.000000
   35       -7.803087   1.000000
   36       -7.549327   1.000000
   37       -7.501083   1.000000
   38       -7.415967   1.000000
   39       -7.376404   1.000000
   40       -7.302957   1.000000
   41       -7.166498   1.000000
   42       -7.114206   1.000000
   43       -7.054057   1.000000
   44       -6.972553   1.000000
   45       -6.871269   1.000000
   46       -6.771994   1.000000
   47       -6.609361   1.000000
   48       -6.551616   1.000000
   49       -6.527850   1.000000
   50       -6.450300   1.000000
   51       -6.414154   1.000000
   52       -6.332001   1.000000
   53       -6.265978   1.000000
   54       -6.242939   1.000000
   55       -6.226853   1.000000
   56       -6.113981   1.000000
   57       -6.056321   1.000000
   58       -5.952171   1.000000
   59       -5.901644   1.000000
   60       -5.859743   1.000000
   61       -5.725741   1.000000
   62       -5.660891   1.000000
   63       -5.565390   1.000000
   64       -5.531148   1.000000
   65       -5.217372   1.000000
   66       -5.102635   1.000000
   67       -4.919415   1.000000
   68       -4.757407   1.000000
   69       -4.679996   1.000000
   70       -4.641346   1.000000
   71       -4.545346   1.000000
   72       -4.497392   1.000000
   73       -4.351789   1.000000
   74       -4.212991   1.000000
   75       -4.182247   1.000000
   76       -4.138450   1.000000
   77       -4.045293   1.000000
   78       -3.903837   0.999955
   79       -3.467156   0.795862
   80       -3.357470   0.520471
   81       -3.141077   0.069597
   82       -2.696347   0.000002
   83       -2.564840   0.000000
   84       -2.516514   0.000000
   85       -2.391897   0.000000
   86       -2.380216   0.000000
   87       -2.241383   0.000000
   88       -2.168214   0.000000
   89       -2.102051   0.000000
   90       -1.924839   0.000000
   91       -1.884359   0.000000
   92       -1.542757   0.000000
   93       -1.464335   0.000000
   94       -1.329741   0.000000
   95       -1.281333   0.000000
   96       -1.202453   0.000000
   97       -1.060887   0.000000
   98       -0.983833   0.000000
   99       -0.967185   0.000000
  100       -0.948237   0.000000
  101       -0.900091   0.000000
  102       -0.773299   0.000000
  103       -0.715566   0.000000
  104       -0.549203   0.000000
  105       -0.506239   0.000000
  106       -0.367715   0.000000
  107       -0.129868   0.000000
  108       -0.055804   0.000000
  109       -0.023027   0.000000
  110        0.088822   0.000000
  111        0.406083   0.000000
  112        0.499260   0.000000
  113        0.828538   0.000000
  114        0.944043   0.000000
  115        1.056485   0.000000
  116        1.287620   0.000000
  117        1.382370   0.000000
  118        2.186111   0.000000
  119        2.222811   0.000000
  120        2.363602   0.000000
 
  0.0000000E+00  0.1250000E+00  0.0000000E+00  0.3125000E-01
    1      -17.771076   1.000000
    2      -16.790188   1.000000
    3      -16.740219   1.000000
    4      -16.588659   1.000000
    5      -16.529058   1.000000
    6      -16.424914   1.000000
    7      -16.359726   1.000000
    8      -16.326438   1.000000
    9      -16.238298   1.000000
   10      -16.113300   1.000000
   11      -16.025342   1.000000
   12      -15.977667   1.000000
   13      -15.857318   1.000000
   14      -15.615706   1.000000
   15      -15.579625   1.000000
   16      -15.453387   1.000000
   17      -15.372313   1.000000
   18      -15.251983   1.000000
   19       -9.296289   1.000000
   20       -9.216348   1.000000
   21       -9.061639   1.000000
   22       -9.029650   1.000000
   23       -8.776429   1.000000
   24       -8.696516   1.000000
   25       -8.662416   1.000000
   26       -8.561249   1.000000
   27       -8.452984   1.000000
   28       -8.427140   1.000000
   29       -8.392968   1.000000
   30       -8.221936   1.000000
   31       -8.147432   1.000000
   32       -8.062095   1.000000
   33       -8.005787   1.000000
   34       -7.893619   1.000000
   35       -7.820906   1.000000
   36       -7.706124   1.000000
   37       -7.658186   1.000000
   38       -7.567552   1.000000
   39       -7.476158   1.000000
   40       -7.366013   1.000000
   41       -7.331912   1.000000
   42       -7.192398   1.000000
   43       -7.137683   1.000000
   44       -7.021975   1.000000
   45       -6.876522   1.000000
   46       -6.823859   1.000000
   47       -6.743656   1.000000
   48       -6.633509   1.000000
   49       -6.572653   1.000000
   50       -6.471581   1.000000
   51       -6.435771   1.000000
   52       -6.381278   1.000000
   53       -6.347633   1.000000
   54       -6.286519   1.000000
   55       -6.201017   1.000000
   56       -6.150575   1.000000
   57       -6.011996   1.000000
   58       -5.936347   1.000000
   59       -5.705765   1.000000
   60       -5.565984   1.000000
   61       -5.505847   1.000000
   62       -5.473178   1.000000
   63       -5.342827   1.000000
   64       -5.177281   1.000000
   65       -5.122844   1.000000
   66       -5.007303   1.000000
   67       -4.937709   1.000000
   68       -4.874625   1.000000
   69       -4.805807   1.000000
   70       -4.703026   1.000000
   71       -4.616655   1.000000
   72       -4.555079   1.000000
   73       -4.418325   1.000000
   74       -4.314392   1.000000
   75       -4.224345   1.000000
   76       -4.063937   1.000000
   77       -3.887980   0.999928
   78       -3.730330   0.996404
   79       -3.531329   0.899851
   80       -3.444021   0.746445
   81       -3.152292   0.080832
   82       -2.856032   0.000238
   83       -2.733261   0.000006
   84       -2.637067   0.000000
   85       -2.505473   0.000000
   86       -2.469106   0.000000
   87       -2.352648   0.000000
   88       -2.230050   0.000000
   89       -2.200670   0.000000
   90       -2.099171   0.000000
   91       -2.012003   0.000000
   92       -1.403990   0.000000
   93       -1.339960   0.000000
   94       -1.217079   0.000000
   95       -1.117660   0.000000
   96       -1.059861   0.000000
   97       -0.987555   0.000000
   98       -0.883704   0.000000
   99       -0.806191   0.000000
  100       -0.709868   0.000000
  101       -0.692507   0.000000
  102       -0.580094   0.000000
  103       -0.500077   0.000000
  104       -0.342809   0.000000
  105       -0.299739   0.000000
  106       -0.149542   0.000000
  107       -0.119353   0.000000
  108       -0.054082   0.000000
  109        0.116738   0.000000
  110        0.271743   0.000000
  111        0.352609   0.000000
  112        0.609651   0.000000
  113        0.732505   0.000000
  114        0.783568   0.000000
  115        0.912133   0.000000
  116        1.050927   0.000000
  117        1.134378   0.000000
  118        1.684776   0.000000
  119        1.876185   0.000000
  120        2.183840   0.000000
 
  0.1250000E+00  0.1250000E+00  0.0000000E+00  0.3125000E-01
    1      -17.724060   1.000000
    2      -16.895149   1.000000
    3      -16.802660   1.000000
    4      -16.670384   1.000000
    5      -16.459799   1.000000
    6      -16.435825   1.000000
    7      -16.325105   1.000000
    8      -16.294793   1.000000
    9      -16.226604   1.000000
   10      -16.108559   1.000000
   11      -16.013626   1.000000
   12      -15.864865   1.000000
   13      -15.832611   1.000000
   14      -15.646968   1.000000
   15      -15.609836   1.000000
   16      -15.458230   1.000000
   17      -15.368892   1.000000
   18      -15.260261   1.000000
   19       -9.383190   1.000000
   20       -9.325618   1.000000
   21       -9.150358   1.000000
   22       -9.076607   1.000000
   23       -8.823428   1.000000
   24       -8.707020   1.000000
   25       -8.645601   1.000000
   26       -8.580698   1.000000
   27       -8.422569   1.000000
   28       -8.376904   1.000000
   29       -8.334459   1.000000
   30       -8.241426   1.000000
   31       -8.083626   1.000000
   32       -8.024612   1.000000
   33       -7.940807   1.000000
   34       -7.830350   1.000000
   35       -7.718731   1.000000
   36       -7.685643   1.000000
   37       -7.600558   1.000000
   38       -7.529523   1.000000
   39       -7.479200   1.000000
   40       -7.366064   1.000000
   41       -7.302973   1.000000
   42       -7.176770   1.000000
   43       -7.095777   1.000000
   44       -7.035629   1.000000
   45       -6.935498   1.000000
   46       -6.834775   1.000000
   47       -6.776115   1.000000
   48       -6.618924   1.000000
   49       -6.556524   1.000000
   50       -6.507384   1.000000
   51       -6.465086   1.000000
   52       -6.367614   1.000000
   53       -6.331945   1.000000
   54       -6.283547   1.000000
   55       -6.180752   1.000000
   56       -6.107090   1.000000
   57       -5.955896   1.000000
   58       -5.891614   1.000000
   59       -5.731284   1.000000
   60       -5.676385   1.000000
   61       -5.558754   1.000000
   62       -5.520928   1.000000
   63       -5.424341   1.000000
   64       -5.272801   1.000000
   65       -5.213582   1.000000
   66       -5.106131   1.000000
   67       -4.891493   1.000000
   68       -4.856796   1.000000
   69       -4.743363   1.000000
   70       -4.616318   1.000000
   71       -4.584533   1.000000
   72       -4.495970   1.000000
   73       -4.381587   1.000000
   74       -4.255142   1.000000
   75       -4.180639   1.000000
   76       -4.129348   1.000000
   77       -3.956807   0.999991
   78       -3.882521   0.999916
   79       -3.496929   0.850238
   80       -3.400889   0.639959
   81       -3.147197   0.075570
   82       -2.791954   0.000039
   83       -2.673405   0.000001
   84       -2.630761   0.000000
   85       -2.482791   0.000000
   86       -2.449551   0.000000
   87       -2.308798   0.000000
   88       -2.221312   0.000000
   89       -2.159812   0.000000
   90       -2.111588   0.000000
   91       -1.958574   0.000000
   92       -1.432627   0.000000
   93       -1.372235   0.000000
   94       -1.206825   0.000000
   95       -1.158318   0.000000
   96       -1.095272   0.000000
   97       -0.975638   0.000000
   98       -0.927202   0.000000
   99       -0.919882   0.000000
  100       -0.805922   0.000000
  101       -0.732353   0.000000
  102       -0.664008   0.000000
  103       -0.537430   0.000000
  104       -0.452852   0.000000
  105       -0.354465   0.000000
  106       -0.157295   0.000000
  107       -0.129920   0.000000
  108       -0.042846   0.000000
  109        0.075059   0.000000
  110        0.257741   0.000000
  111        0.345507   0.000000
  112        0.599536   0.000000
  113        0.761815   0.000000
  114        0.865374   0.000000
  115        0.954397   0.000000
  116        1.107228   0.000000
  117        1.152215   0.000000
  118        1.765461   0.000000
  119        1.952994   0.000000
  120        2.252801   0.000000
 
  0.2500000E+00  0.1250000E+00  0.0000000E+00  0.3125000E-01
    1      -17.635003   1.000000
    2      -17.066500   1.000000
    3      -16.889537   1.000000
    4      -16.678975   1.000000
    5      -16.488494   1.000000
    6      -16.370811   1.000000
    7      -16.314508   1.000000
    8      -16.261695   1.000000
    9      -16.191810   1.000000
   10      -16.081194   1.000000
   11      -15.982315   1.000000
   12      -15.833149   1.000000
   13      -15.747951   1.000000
   14      -15.683682   1.000000
   15      -15.638634   1.000000
   16      -15.469441   1.000000
   17      -15.371947   1.000000
   18      -15.268285   1.000000
   19       -9.571195   1.000000
   20       -9.409779   1.000000
   21       -9.238384   1.000000
   22       -9.093108   1.000000
   23       -8.879541   1.000000
   24       -8.722376   1.000000
   25       -8.556552   1.000000
   26       -8.499429   1.000000
   27       -8.413648   1.000000
   28       -8.317298   1.000000
   29       -8.277625   1.000000
   30       -8.232944   1.000000
   31       -8.083515   1.000000
   32       -8.053834   1.000000
   33       -7.968778   1.000000
   34       -7.858320   1.000000
   35       -7.733177   1.000000
   36       -7.653190   1.000000
   37       -7.506385   1.000000
   38       -7.474592   1.000000
   39       -7.387193   1.000000
   40       -7.355796   1.000000
   41       -7.196909   1.000000
   42       -7.117138   1.000000
   43       -7.076459   1.000000
   44       -7.009770   1.000000
   45       -6.885517   1.000000
   46       -6.801481   1.000000
   47       -6.767716   1.000000