       N       E                     dE             d eps       ncg     rms          rms(c)
DAV:   1     0.112358201911E+04    0.11236E+04   -0.35869E+04  8160   0.577E+02
DAV:   2    -0.222360224588E+01   -0.11258E+04   -0.10832E+04 11000   0.173E+02
DAV:   3    -0.199751892758E+03   -0.19753E+03   -0.18935E+03 10920   0.821E+01
DAV:   4    -0.209050962546E+03   -0.92991E+01   -0.89830E+01 11960   0.262E+01
DAV:   5    -0.209401986120E+03   -0.35102E+00   -0.35006E+00 11480   0.382E+00    0.278E+01
DAV:   6    -0.241497244676E+03   -0.32095E+02   -0.11412E+02 12480   0.600E+01    0.607E+01
DAV:   7    -0.196126614932E+03    0.45371E+02   -0.18047E+02 13280   0.151E+02    0.198E+01
DAV:   8    -0.189338523898E+03    0.67881E+01   -0.18383E+01 12080   0.126E+01    0.122E+01
DAV:   9    -0.188072951680E+03    0.12656E+01   -0.30446E+00 13240   0.616E+00    0.886E+00
DAV:  10    -0.186953335329E+03    0.11196E+01   -0.15865E+00 13520   0.719E+00    0.207E+00
DAV:  11    -0.187074883117E+03   -0.12155E+00   -0.61077E-01 13600   0.349E+00    0.440E+00
DAV:  12    -0.186954115741E+03    0.12077E+00   -0.65298E-01 12880   0.431E+00    0.293E+00
DAV:  13    -0.186877005756E+03    0.77110E-01   -0.19550E-01 12760   0.233E+00    0.134E+00
DAV:  14    -0.186856408368E+03    0.20597E-01   -0.77813E-02 12240   0.131E+00    0.921E-01
DAV:  15    -0.186853086285E+03    0.33221E-02   -0.25258E-02 12480   0.803E-01    0.727E-01
DAV:  16    -0.186848596418E+03    0.44899E-02   -0.10712E-02 13040   0.449E-01    0.299E-01
DAV:  17    -0.186847447034E+03    0.11494E-02   -0.55403E-03 12720   0.336E-01    0.237E-01
DAV:  18    -0.186846842645E+03    0.60439E-03   -0.18030E-03 12520   0.201E-01    0.779E-02
DAV:  19    -0.186847020135E+03   -0.17749E-03   -0.55173E-04  8760   0.655E-02    0.787E-02
DAV:  20    -0.186847714365E+03   -0.69423E-03   -0.72238E-04  9280   0.836E-02    0.576E-02
DAV:  21    -0.186848705079E+03   -0.99071E-03   -0.26315E-04  8120   0.491E-02    0.322E-02
DAV:  22    -0.186849482967E+03   -0.77789E-03   -0.11530E-04  6760   0.367E-02    0.245E-02
DAV:  23    -0.186850563607E+03   -0.10806E-02   -0.96217E-05  7480   0.236E-02    0.103E-02
DAV:  24    -0.186851188200E+03   -0.62459E-03   -0.24841E-05  6320   0.152E-02    0.664E-03
DAV:  25    -0.186851570938E+03   -0.38274E-03   -0.15371E-05  5920   0.113E-02    0.252E-03
DAV:  26    -0.186851773739E+03   -0.20280E-03   -0.74718E-06  6880   0.622E-03    0.142E-03
DAV:  27    -0.186851857880E+03   -0.84140E-04   -0.36890E-06  6880   0.430E-03
   1 F= -.18685186E+03 E0= -.18667875E+03  d E =-.186852E+03
       N       E                     dE             d eps       ncg     rms          rms(c)
DAV:   1    -0.187531951441E+03   -0.68018E+00   -0.27385E+02  8160   0.351E+01    0.466E+00
DAV:   2    -0.189600930696E+03   -0.20690E+01   -0.20308E+01 12200   0.156E+01    0.104E+01
DAV:   3    -0.189338540023E+03    0.26239E+00   -0.49718E+00 12440   0.127E+01    0.623E+00
DAV:   4    -0.188803521578E+03    0.53502E+00   -0.63390E-01 12520   0.444E+00    0.240E+00
DAV:   5    -0.188904921277E+03   -0.10140E+00   -0.49055E-01 11200   0.389E+00    0.540E+00
DAV:   6    -0.188771036207E+03    0.13389E+00   -0.76923E-01 12680   0.407E+00    0.237E+00
DAV:   7    -0.188729926984E+03    0.41109E-01   -0.23645E-01 11840   0.208E+00    0.206E+00
DAV:   8    -0.188721062872E+03    0.88641E-02   -0.16123E-01 12160   0.214E+00    0.202E+00
DAV:   9    -0.188690134038E+03    0.30929E-01   -0.73358E-02 12600   0.126E+00    0.595E-01
DAV:  10    -0.188687531663E+03    0.26024E-02   -0.72093E-03 10800   0.292E-01    0.309E-01
DAV:  11    -0.188686765431E+03    0.76623E-03   -0.27879E-03 13160   0.227E-01    0.117E-01
DAV:  12    -0.188686753205E+03    0.12226E-04   -0.10672E-03 11840   0.103E-01    0.905E-02
DAV:  13    -0.188686780921E+03   -0.27715E-04   -0.33006E-04  8560   0.608E-02
   2 F= -.18868678E+03 E0= -.18854476E+03  d E =-.183492E+01
       N       E                     dE             d eps       ncg     rms          rms(c)
DAV:   1    -0.190621411800E+03   -0.19347E+01   -0.31436E+01  8960   0.143E+01    0.444E+00
DAV:   2    -0.190552121482E+03    0.69290E-01   -0.27786E+00 11560   0.913E+00    0.722E+00
DAV:   3    -0.190117717827E+03    0.43440E+00   -0.15137E+00 12280   0.841E+00    0.435E+00
DAV:   4    -0.189889707961E+03    0.22801E+00   -0.71846E-01 12680   0.435E+00    0.247E+00
DAV:   5    -0.189867050959E+03    0.22657E-01   -0.37218E-01 12240   0.306E+00    0.288E+00
DAV:   6    -0.189792311412E+03    0.74740E-01   -0.15813E-01 12560   0.245E+00    0.707E-01
DAV:   7    -0.189787449689E+03    0.48617E-02   -0.15029E-02 11640   0.600E-01    0.421E-01
DAV:   8    -0.189787203628E+03    0.24606E-03   -0.66642E-03 12720   0.481E-01    0.358E-01
DAV:   9    -0.189786247200E+03    0.95643E-03   -0.23407E-03 11400   0.247E-01    0.121E-01
DAV:  10    -0.189786681007E+03   -0.43381E-03   -0.96727E-04 10480   0.107E-01    0.127E-01
DAV:  11    -0.189786382077E+03    0.29893E-03   -0.49269E-04  9040   0.775E-02    0.203E-02
DAV:  12    -0.189786402390E+03   -0.20313E-04   -0.65941E-05  6920   0.265E-02
   3 F= -.18978640E+03 E0= -.18966599E+03  d E =-.109962E+01
       N       E                     dE             d eps       ncg     rms          rms(c)
DAV:   1    -0.191399402660E+03   -0.16130E+01   -0.80894E+01  8160   0.205E+01    0.463E+00
DAV:   2    -0.191136379258E+03    0.26302E+00   -0.53839E+00 13280   0.676E+00    0.378E+00
DAV:   3    -0.191450198811E+03   -0.31382E+00   -0.15350E+00 12120   0.863E+00    0.810E+00
DAV:   4    -0.191004638690E+03    0.44556E+00   -0.21473E+00 11240   0.930E+00    0.370E+00
DAV:   5    -0.190994856978E+03    0.97817E-02   -0.73544E-01 11920   0.542E+00    0.368E+00
DAV:   6    -0.190814909907E+03    0.17995E+00   -0.23387E-01 12120   0.326E+00    0.724E-01
DAV:   7    -0.190814750772E+03    0.15913E-03   -0.36652E-02 12440   0.840E-01    0.659E-01
DAV:   8    -0.190812954240E+03    0.17965E-02   -0.18236E-02 11760   0.854E-01    0.619E-01
DAV:   9    -0.190809309540E+03    0.36447E-02   -0.65083E-03 11440   0.519E-01    0.179E-01
DAV:  10    -0.190809608740E+03   -0.29920E-03   -0.16326E-03 11160   0.153E-01    0.124E-01
DAV:  11    -0.190809391425E+03    0.21732E-03   -0.66821E-04 10600   0.100E-01    0.433E-02
DAV:  12    -0.190809399096E+03   -0.76707E-05   -0.96922E-05  7240   0.345E-02
   4 F= -.19080940E+03 E0= -.19070614E+03  d E =-.102300E+01
       N       E                     dE             d eps       ncg     rms          rms(c)
DAV:   1    -0.192260019721E+03   -0.14506E+01   -0.18550E+02  8160   0.303E+01    0.591E+00
DAV:   2    -0.192011211531E+03    0.24881E+00   -0.10212E+01 11080   0.790E+00    0.409E+00
DAV:   3    -0.192461126843E+03   -0.44992E+00   -0.32340E+00 12080   0.113E+01    0.737E+00
DAV:   4    -0.191700934805E+03    0.76019E+00   -0.11258E+00 12240   0.841E+00    0.287E+00
DAV:   5    -0.191751048062E+03   -0.50113E-01   -0.61250E-01 11880   0.554E+00    0.487E+00
DAV:   6    -0.191549215270E+03    0.20183E+00   -0.59776E-01 12200   0.499E+00    0.109E+00
DAV:   7    -0.191542085635E+03    0.71296E-02   -0.59555E-02 11840   0.124E+00    0.759E-01
DAV:   8    -0.191539297013E+03    0.27886E-02   -0.29971E-02 12280   0.107E+00    0.694E-01
DAV:   9    -0.191534647437E+03    0.46496E-02   -0.10987E-02 11520   0.635E-01    0.175E-01
DAV:  10    -0.191534655455E+03   -0.80183E-05   -0.25234E-03 11440   0.164E-01    0.811E-02
DAV:  11    -0.191534674950E+03   -0.19495E-04   -0.40274E-04  9040   0.878E-02
   5 F= -.19153467E+03 E0= -.19143695E+03  d E =-.725276E+00
       N       E                     dE             d eps       ncg     rms          rms(c)
DAV:   1    -0.191602886060E+03   -0.68231E-01   -0.58680E+00  8160   0.513E+00    0.781E-01
DAV:   2    -0.191701079070E+03   -0.98193E-01   -0.36998E-01 12720   0.361E+00    0.283E+00
DAV:   3    -0.191615894829E+03    0.85184E-01   -0.14797E-01 12440   0.286E+00    0.425E-01
DAV:   4    -0.191620077375E+03   -0.41825E-02   -0.21313E-02 11600   0.897E-01    0.838E-01
DAV:   5    -0.191613464963E+03    0.66124E-02   -0.14792E-02 11640   0.777E-01    0.208E-01
DAV:   6    -0.191614801149E+03   -0.13362E-02   -0.57046E-03 11520   0.417E-01    0.419E-01
DAV:   7    -0.191613290767E+03    0.15104E-02   -0.50153E-03 11320   0.443E-01    0.163E-01
DAV:   8    -0.191612981181E+03    0.30959E-03   -0.73165E-04  9640   0.138E-01    0.378E-02
DAV:   9    -0.191612994938E+03   -0.13757E-04   -0.10701E-04  6280   0.382E-02
   6 F= -.19161299E+03 E0= -.19151309E+03  d E =-.783200E-01
       N       E                     dE             d eps       ncg     rms          rms(c)
DAV:   1    -0.191681603252E+03   -0.68622E-01   -0.65592E+00  8160   0.539E+00    0.704E-01
DAV:   2    -0.191750864425E+03   -0.69261E-01   -0.25414E-01 13360   0.278E+00    0.241E+00
DAV:   3    -0.191689554048E+03    0.61310E-01   -0.12066E-01 12440   0.253E+00    0.510E-01
DAV:   4    -0.191692920360E+03   -0.33663E-02   -0.22962E-02 11520   0.903E-01    0.802E-01
DAV:   5    -0.191686747227E+03    0.61731E-02   -0.14051E-02 11680   0.741E-01    0.194E-01
DAV:   6    -0.191687077783E+03   -0.33056E-03   -0.31323E-03 11560   0.278E-01    0.252E-01
DAV:   7    -0.191686910999E+03    0.16678E-03   -0.35641E-03 11400   0.380E-01    0.238E-01
DAV:   8    -0.191686365098E+03    0.54590E-03   -0.12611E-03 10040   0.212E-01    0.463E-02
DAV:   9    -0.191686349323E+03    0.15776E-04   -0.10738E-04  6000   0.431E-02
   7 F= -.19168635E+03 E0= -.19158577E+03  d E =-.733544E-01
       N       E                     dE             d eps       ncg     rms          rms(c)
DAV:   1    -0.191727320921E+03   -0.40956E-01   -0.18556E+00  8160   0.292E+00    0.410E-01
DAV:   2    -0.191749721976E+03   -0.22401E-01   -0.88582E-02 13240   0.174E+00    0.141E+00
DAV:   3    -0.191729551970E+03    0.20170E-01   -0.38061E-02 12280   0.140E+00    0.294E-01
DAV:   4    -0.191731126654E+03   -0.15747E-02   -0.94020E-03 11400   0.586E-01    0.509E-01
DAV:   5    -0.191728502381E+03    0.26243E-02   -0.53986E-03 11280   0.459E-01    0.101E-01
DAV:   6    -0.191728575727E+03   -0.73345E-04   -0.10877E-03 10120   0.122E-01    0.937E-02
DAV:   7    -0.191728472379E+03    0.10335E-03   -0.56285E-04  9800   0.133E-01    0.937E-02
DAV:   8    -0.191728394848E+03    0.77531E-04   -0.22108E-04  6360   0.101E-01
   8 F= -.19172839E+03 E0= -.19162792E+03  d E =-.420455E-01
       N       E                     dE             d eps       ncg     rms          rms(c)
DAV:   1    -0.191785112311E+03   -0.56640E-01   -0.34182E+00  8160   0.397E+00    0.506E-01
DAV:   2    -0.191814795331E+03   -0.29683E-01   -0.13732E-01 13400   0.198E+00    0.163E+00
DAV:   3    -0.191790066066E+03    0.24729E-01   -0.56193E-02 12400   0.164E+00    0.431E-01
DAV:   4    -0.191792076285E+03   -0.20102E-02   -0.15110E-02 11280   0.776E-01    0.626E-01
DAV:   5    -0.191787854062E+03    0.42222E-02   -0.77684E-03 11160   0.593E-01    0.130E-01
DAV:   6    -0.191787939832E+03   -0.85770E-04   -0.17233E-03 11000   0.159E-01    0.118E-01
DAV:   7    -0.191787794601E+03    0.14523E-03   -0.85659E-04 11560   0.174E-01    0.123E-01
DAV:   8    -0.191787655896E+03    0.13871E-03   -0.35395E-04  7840   0.124E-01    0.345E-02
DAV:   9    -0.191787649334E+03    0.65615E-05   -0.45509E-05  6040   0.341E-02
   9 F= -.19178765E+03 E0= -.19168859E+03  d E =-.592545E-01
       N       E                     dE             d eps       ncg     rms          rms(c)
DAV:   1    -0.191775523472E+03    0.12132E-01   -0.12855E-01  8160   0.776E-01    0.945E-02
DAV:   2    -0.191776131447E+03   -0.60798E-03   -0.44012E-03 12680   0.288E-01    0.235E-01
DAV:   3    -0.191775649800E+03    0.48165E-03   -0.15339E-03 10240   0.252E-01    0.900E-02
DAV:   4    -0.191775673980E+03   -0.24180E-04   -0.42480E-04  8000   0.130E-01
  10 F= -.19177567E+03 E0= -.19167571E+03  d E =0.119754E-01
       N       E                     dE             d eps       ncg     rms          rms(c)
DAV:   1    -0.191760520185E+03    0.15130E-01   -0.29051E-01  8160   0.117E+00    0.156E-01
DAV:   2    -0.191760912516E+03   -0.39233E-03   -0.82742E-03 11520   0.331E-01    0.203E-01
DAV:   3    -0.191760880575E+03    0.31941E-04   -0.25933E-03 11800   0.344E-01    0.209E-01
DAV:   4    -0.191760553503E+03    0.32707E-03   -0.15402E-03 10280   0.235E-01    0.144E-01
DAV:   5    -0.191760515591E+03    0.37912E-04   -0.98452E-04  9200   0.207E-01
  11 F= -.19176052E+03 E0= -.19165936E+03  d E =0.151584E-01
       N       E                     dE             d eps       ncg     rms          rms(c)
DAV:   1    -0.191704374254E+03    0.56179E-01   -0.94012E+00  8160   0.670E+00    0.825E-01
DAV:   2    -0.191733803171E+03   -0.29429E-01   -0.28657E-01 12280   0.207E+00    0.172E+00
DAV:   3    -0.191716361274E+03    0.17442E-01   -0.12745E-01 11960   0.202E+00    0.947E-01
DAV:   4    -0.191715595739E+03    0.76554E-03   -0.43834E-02 12200   0.125E+00    0.968E-01
DAV:   5    -0.191705978622E+03    0.96171E-02   -0.22644E-02 10960   0.108E+00    0.345E-01
DAV:   6    -0.191704824962E+03    0.11537E-02   -0.59158E-03 11840   0.353E-01    0.140E-01
DAV:   7    -0.191704641027E+03    0.18393E-03   -0.14942E-03 12960   0.204E-01    0.157E-01
DAV:   8    -0.191704441837E+03    0.19919E-03   -0.75753E-04  8920   0.173E-01    0.733E-02
DAV:   9    -0.191704389165E+03    0.52672E-04   -0.14942E-04  6120   0.694E-02
  12 F= -.19170439E+03 E0= -.19160030E+03  d E =0.561264E-01
       N       E                     dE             d eps       ncg     rms          rms(c)
DAV:   1    -0.191789237514E+03   -0.84796E-01   -0.11822E+01  8160   0.742E+00    0.906E-01
DAV:   2    -0.191848909178E+03   -0.59672E-01   -0.39366E-01 12360   0.252E+00    0.255E+00
DAV:   3    -0.191804798956E+03    0.44110E-01   -0.21406E-01 12040   0.263E+00    0.983E-01
DAV:   4    -0.191802705186E+03    0.20938E-02   -0.37441E-02 11480   0.116E+00    0.905E-01
DAV:   5    -0.191793691070E+03    0.90141E-02   -0.18757E-02 11600   0.105E+00    0.368E-01
DAV:   6    -0.191792695760E+03    0.99531E-03   -0.72076E-03 12200   0.409E-01    0.227E-01
DAV:   7    -0.191793020363E+03   -0.32460E-03   -0.51964E-03 12080   0.443E-01    0.349E-01
DAV:   8    -0.191791892551E+03    0.11278E-02   -0.26203E-03 10160   0.333E-01    0.714E-02
DAV:   9    -0.191791844251E+03    0.48300E-04   -0.18814E-04  5840   0.649E-02
  13 F= -.19179184E+03 E0= -.19169050E+03  d E =-.874551E-01
       N       E                     dE             d eps       ncg     rms          rms(c)
DAV:   1    -0.191803305884E+03   -0.11413E-01   -0.84100E-01  8160   0.199E+00    0.281E-01
DAV:   2    -0.191810757027E+03   -0.74511E-02   -0.33945E-02 12360   0.103E+00    0.830E-01
DAV:   3    -0.191803786120E+03    0.69709E-02   -0.14724E-02 11880   0.857E-01    0.210E-01
DAV:   4    -0.191804781679E+03   -0.99556E-03   -0.54995E-03 11360   0.430E-01    0.399E-01
DAV:   5    -0.191803247751E+03    0.15339E-02   -0.38073E-03 10600   0.371E-01    0.923E-02
DAV:   6    -0.191803243732E+03    0.40189E-05   -0.67084E-04  9800   0.103E-01
  14 F= -.19180324E+03 E0= -.19170101E+03  d E =-.113995E-01
       N       E                     dE             d eps       ncg     rms          rms(c)
DAV:   1    -0.191836748090E+03   -0.33500E-01   -0.23485E+00  8160   0.330E+00    0.398E-01
DAV:   2    -0.191850863488E+03   -0.14115E-01   -0.85052E-02 12400   0.130E+00    0.111E+00
DAV:   3    -0.191840426666E+03    0.10437E-01   -0.35024E-02 12120   0.116E+00    0.386E-01
DAV:   4    -0.191841560068E+03   -0.11334E-02   -0.11057E-02 11360   0.635E-01    0.513E-01
DAV:   5    -0.191838701772E+03    0.28583E-02   -0.59282E-03 11000   0.512E-01    0.121E-01
DAV:   6    -0.191838827549E+03   -0.12578E-03   -0.14574E-03 10440   0.166E-01    0.131E-01
DAV:   7    -0.191838750348E+03    0.77201E-04   -0.11328E-03 10560   0.212E-01    0.145E-01
DAV:   8    -0.191838536755E+03    0.21359E-03   -0.39990E-04  7640   0.129E-01    0.215E-02
DAV:   9    -0.191838540834E+03   -0.40794E-05   -0.32471E-05  5880   0.224E-02
  15 F= -.19183854E+03 E0= -.19173658E+03  d E =-.352971E-01
       N       E                     dE             d eps       ncg     rms          rms(c)
DAV:   1    -0.191877006845E+03   -0.38470E-01   -0.21947E+00  8160   0.319E+00    0.390E-01
DAV:   2    -0.191891655391E+03   -0.14649E-01   -0.86770E-02 12320   0.135E+00    0.115E+00
DAV:   3    -0.191880453354E+03    0.11202E-01   -0.35216E-02 12400   0.116E+00    0.354E-01
DAV:   4    -0.191881385180E+03   -0.93183E-03   -0.94158E-03 11480   0.603E-01    0.473E-01
DAV:   5    -0.191878946021E+03    0.24392E-02   -0.52267E-03 10480   0.500E-01    0.137E-01
DAV:   6    -0.191879373373E+03   -0.42735E-03   -0.21079E-03 11600   0.267E-01    0.244E-01
DAV:   7    -0.191878887174E+03    0.48620E-03   -0.18369E-03  9920   0.289E-01    0.114E-01
DAV:   8    -0.191878728650E+03    0.15852E-03   -0.32489E-04  7200   0.998E-02    0.210E-02
DAV:   9    -0.191878725684E+03    0.29667E-05   -0.43899E-05  7480   0.240E-02
  16 F= -.19187873E+03 E0= -.19177792E+03  d E =-.401848E-01
       N       E                     dE             d eps       ncg     rms          rms(c)
DAV:   1    -0.191949575305E+03   -0.70847E-01   -0.76116E+00  8160   0.600E+00    0.768E-01
DAV:   2    -0.192017037335E+03   -0.67462E-01   -0.33860E-01 11680   0.264E+00    0.278E+00
DAV:   3    -0.191960784548E+03    0.56253E-01   -0.17738E-01 12360   0.246E+00    0.617E-01
DAV:   4    -0.191961731465E+03   -0.94692E-03   -0.18396E-02 11400   0.913E-01    0.798E-01
DAV:   5    -0.191955679417E+03    0.60520E-02   -0.17194E-02 12200   0.930E-01    0.319E-01
DAV:   6    -0.191956573859E+03   -0.89444E-03   -0.66296E-03 11080   0.535E-01    0.408E-01
DAV:   7    -0.191954933227E+03    0.16406E-02   -0.41091E-03 10640   0.510E-01    0.183E-01
DAV:   8    -0.191954453801E+03    0.47943E-03   -0.88216E-04 10160   0.191E-01    0.395E-02
DAV:   9    -0.191954439265E+03    0.14536E-04   -0.12347E-04  7280   0.431E-02
  17 F= -.19195444E+03 E0= -.19185685E+03  d E =-.757136E-01
       N       E                     dE             d eps       ncg     rms          rms(c)
DAV:   1    -0.192034456242E+03   -0.80002E-01   -0.11519E+01  8160   0.737E+00    0.922E-01
DAV:   2    -0.192119387456E+03   -0.84931E-01   -0.47702E-01 12080   0.308E+00    0.296E+00
DAV:   3    -0.192054949202E+03    0.64438E-01   -0.20604E-01 12360   0.285E+00    0.823E-01
DAV:   4    -0.192055278536E+03   -0.32933E-03   -0.27272E-02 11400   0.124E+00    0.936E-01
DAV:   5    -0.192045398371E+03    0.98802E-02   -0.21134E-02 12200   0.114E+00    0.338E-01
DAV:   6    -0.192046383641E+03   -0.98527E-03   -0.82042E-03 11960   0.605E-01    0.463E-01
DAV:   7    -0.192044897116E+03    0.14865E-02   -0.67950E-03 11960   0.652E-01    0.293E-01
DAV:   8    -0.192043788753E+03    0.11084E-02   -0.19123E-03 10560   0.299E-01    0.528E-02
DAV:   9    -0.192043765399E+03    0.23354E-04   -0.23382E-04  8000   0.578E-02
  18 F= -.19204377E+03 E0= -.19194928E+03  d E =-.893261E-01
       N       E                     dE             d eps       ncg     rms          rms(c)
DAV:   1    -0.192059045767E+03   -0.15257E-01   -0.24385E+00  8160   0.331E+00    0.363E-01
DAV:   2    -0.192069708055E+03   -0.10662E-01   -0.89436E-02 12200   0.121E+00    0.703E-01
DAV:   3    -0.192064815345E+03    0.48927E-02   -0.16757E-02 11880   0.961E-01    0.356E-01
DAV:   4    -0.192064247675E+03    0.56767E-03   -0.52738E-03 12120   0.480E-01    0.319E-01
DAV:   5    -0.192063614556E+03    0.63312E-03   -0.29843E-03 11240   0.399E-01    0.215E-01
DAV:   6    -0.192063330063E+03    0.28449E-03   -0.15895E-03 10640   0.257E-01    0.135E-01
DAV:   7    -0.192063565559E+03   -0.23550E-03   -0.15433E-03 10800   0.279E-01    0.200E-01
DAV:   8    -0.192063129750E+03    0.43581E-03   -0.70210E-04  8840   0.194E-01    0.278E-02
DAV:   9    -0.192063131516E+03   -0.17657E-05   -0.51584E-05  5760   0.301E-02
  19 F= -.19206313E+03 E0= -.19196872E+03  d E =-.193661E-01
       N       E                     dE             d eps       ncg     rms          rms(c)
DAV:   1    -0.192084192708E+03   -0.21063E-01   -0.15400E+00  8160   0.273E+00    0.362E-01
DAV:   2    -0.192093911910E+03   -0.97192E-02   -0.47729E-02 12360   0.109E+00    0.107E+00
DAV:   3    -0.192084540275E+03    0.93716E-02   -0.23583E-02 12480   0.104E+00    0.293E-01
DAV:   4    -0.192084503731E+03    0.36545E-04   -0.34747E-03 11400   0.396E-01    0.323E-01
DAV:   5    -0.192083690775E+03    0.81296E-03   -0.36372E-03 12240   0.482E-01    0.213E-01
DAV:   6    -0.192083294285E+03    0.39649E-03   -0.13771E-03  9720   0.241E-01    0.955E-02
DAV:   7    -0.192083247023E+03    0.47262E-04   -0.47919E-04  9240   0.164E-01
  20 F= -.19208325E+03 E0= -.19198916E+03  d E =-.201155E-01
       N       E                     dE             d eps       ncg     rms          rms(c)
DAV:   1    -0.192115331761E+03   -0.32037E-01   -0.26766E+00  8160   0.352E+00    0.440E-01
DAV:   2    -0.192129320506E+03   -0.13989E-01   -0.10225E-01 11520   0.131E+00    0.105E+00
DAV:   3    -0.192120574514E+03    0.87460E-02   -0.31458E-02 12360   0.124E+00    0.451E-01
DAV:   4    -0.192119889549E+03    0.68496E-03   -0.60818E-03 11680   0.556E-01    0.396E-01
DAV:   5    -0.192118102584E+03    0.17870E-02   -0.35925E-03 12480   0.502E-01    0.154E-01
DAV:   6    -0.192118031394E+03    0.71190E-04   -0.13226E-03 12000   0.198E-01    0.100E-01
DAV:   7    -0.192117881744E+03    0.14965E-03   -0.60558E-04 10400   0.134E-01    0.759E-02
DAV:   8    -0.192117829962E+03    0.51782E-04   -0.15392E-04  6960   0.104E-01
  21 F= -.19211783E+03 E0= -.19202460E+03  d E =-.345829E-01
       N       E                     dE             d eps       ncg     rms          rms(c)
DAV:   1    -0.192149173658E+03   -0.31292E-01   -0.45259E+00  8160   0.452E+00    0.498E-01
DAV:   2    -0.192167804315E+03   -0.18631E-01   -0.16213E-01 11480   0.153E+00    0.982E-01
DAV:   3    -0.192160477988E+03    0.73263E-02   -0.35411E-02 12360   0.139E+00    0.577E-01
DAV:   4    -0.192158759060E+03    0.17189E-02   -0.87102E-03 11400   0.691E-01    0.440E-01
DAV:   5    -0.192156884064E+03    0.18750E-02   -0.42369E-03 12080   0.551E-01    0.204E-01
DAV:   6    -0.192156688385E+03    0.19568E-03   -0.19505E-03 12680   0.252E-01    0.120E-01
DAV:   7    -0.192156614516E+03    0.73869E-04   -0.10136E-03 10120   0.197E-01    0.129E-01
DAV:   8    -0.192156436932E+03    0.17758E-03   -0.36398E-04  8880   0.156E-01    0.383E-02
DAV:   9    -0.192156425612E+03    0.11320E-04   -0.55362E-05  5840   0.439E-02
  22 F= -.19215643E+03 E0= -.19206400E+03  d E =-.385956E-01
       N       E                     dE             d eps       ncg     rms          rms(c)
DAV:   1    -0.192156511229E+03   -0.74298E-04   -0.12443E-01  8160   0.780E-01    0.124E-01
DAV:   2    -0.192156756467E+03   -0.24524E-03   -0.52248E-03 11560   0.310E-01    0.177E-01
DAV:   3    -0.192156512393E+03    0.24407E-03   -0.12720E-03 10320   0.287E-01    0.114E-01
DAV:   4    -0.192156349492E+03    0.16290E-03   -0.49930E-04  8480   0.161E-01    0.762E-02
DAV:   5    -0.192156379262E+03   -0.29769E-04   -0.36438E-04  7720   0.142E-01
  23 F= -.19215638E+03 E0= -.19206325E+03  d E =0.463501E-04
       N       E                     dE             d eps       ncg     rms          rms(c)
DAV:   1    -0.192179909163E+03   -0.23560E-01   -0.15203E+00  8160   0.267E+00    0.333E-01
DAV:   2    -0.192182907346E+03   -0.29982E-02   -0.48468E-02 11920   0.676E-01    0.418E-01
DAV:   3    -0.192183654455E+03   -0.74711E-03   -0.11122E-02 12360   0.798E-01    0.517E-01
DAV:   4    -0.192180911489E+03    0.27430E-02   -0.42035E-03 12360   0.480E-01    0.153E-01
DAV:   5    -0.192180973260E+03   -0.61771E-04   -0.16650E-03 10680   0.295E-01    0.195E-01
DAV:   6    -0.192180688430E+03    0.28483E-03   -0.11572E-03 10640   0.282E-01    0.105E-01
DAV:   7    -0.192180551703E+03    0.13673E-03   -0.40566E-04  8960   0.140E-01    0.584E-02
DAV:   8    -0.192180520793E+03    0.30910E-04   -0.10138E-04  6160   0.863E-02
  24 F= -.19218052E+03 E0= -.19208808E+03  d E =-.241415E-01
       N       E                     dE             d eps       ncg     rms          rms(c)
DAV:   1    -0.192198338761E+03   -0.17787E-01   -0.98426E-01  8160   0.212E+00    0.250E-01
DAV:   2    -0.192201732554E+03   -0.33938E-02   -0.34357E-02 11440   0.744E-01    0.410E-01
DAV:   3    -0.192200393375E+03    0.13392E-02   -0.63819E-03 12440   0.641E-01    0.252E-01
DAV:   4    -0.192200086139E+03    0.30724E-03   -0.20371E-03 11360   0.345E-01    0.227E-01
DAV:   5    -0.192199712520E+03    0.37362E-03   -0.11601E-03 10120   0.282E-01    0.123E-01
DAV:   6    -0.192199611925E+03    0.10060E-03   -0.53780E-04 10160   0.132E-01    0.507E-02
DAV:   7    -0.192199569932E+03    0.41993E-04   -0.15020E-04  6720   0.649E-02
  25 F= -.19219957E+03 E0= -.19210765E+03  d E =-.190491E-01
       N       E                     dE             d eps       ncg     rms          rms(c)
DAV:   1    -0.192212795257E+03   -0.13183E-01   -0.38079E-01  8160   0.134E+00    0.165E-01
DAV:   2    -0.192213498531E+03   -0.70327E-03   -0.10348E-02 11040   0.336E-01    0.214E-01
DAV:   3    -0.192213524459E+03   -0.25928E-04   -0.21582E-03 12360   0.380E-01    0.229E-01
DAV:   4    -0.192213087036E+03    0.43742E-03   -0.95531E-04 10040   0.240E-01    0.111E-01
DAV:   5    -0.192213032768E+03    0.54268E-04   -0.49024E-04  8520   0.191E-01
  26 F= -.19221303E+03 E0= -.19212148E+03  d E =-.134628E-01
       N       E                     dE             d eps       ncg     rms          rms(c)
DAV:   1    -0.192190811467E+03    0.22276E-01   -0.11628E+00  8160   0.233E+00    0.297E-01
DAV:   2    -0.192195830636E+03   -0.50192E-02   -0.33103E-02 11440   0.819E-01    0.695E-01
DAV:   3    -0.192191889033E+03    0.39416E-02   -0.11369E-02 12000   0.804E-01    0.282E-01
DAV:   4    -0.192191420627E+03    0.46841E-03   -0.22650E-03 11200   0.308E-01    0.199E-01
DAV:   5    -0.192191262933E+03    0.15769E-03   -0.19085E-03 10720   0.355E-01    0.197E-01
DAV:   6    -0.192190938234E+03    0.32470E-03   -0.10082E-03 10120   0.243E-01    0.799E-02
DAV:   7    -0.192190833362E+03    0.10487E-03   -0.22924E-04  7360   0.825E-02    0.266E-02
DAV:   8    -0.192190830688E+03    0.26736E-05   -0.48380E-05  8000   0.534E-02
  27 F= -.19219083E+03 E0= -.19209847E+03  d E =0.222021E-01
       N       E                     dE             d eps       ncg     rms          rms(c)
DAV:   1    -0.192169297306E+03    0.21536E-01   -0.24909E+00  8160   0.342E+00    0.431E-01
DAV:   2    -0.192175914910E+03   -0.66176E-02   -0.63902E-02 11560   0.100E+00    0.824E-01
DAV:   3    -0.192171934096E+03    0.39808E-02   -0.22127E-02 12320   0.105E+00    0.479E-01
DAV:   4    -0.192169547727E+03    0.23864E-02   -0.41853E-03 11440   0.402E-01    0.159E-01
DAV:   5    -0.192169798087E+03   -0.25036E-03   -0.30098E-03 11560   0.331E-01    0.244E-01
DAV:   6    -0.192169427063E+03    0.37102E-03   -0.20150E-03 10480   0.382E-01    0.173E-01
DAV:   7    -0.192169032355E+03    0.39471E-03   -0.59102E-04  9200   0.176E-01    0.320E-02
DAV:   8    -0.192169032107E+03    0.24724E-06   -0.70482E-05  6480   0.503E-02
  28 F= -.19216903E+03 E0= -.19207581E+03  d E =0.217986E-01
       N       E                     dE             d eps       ncg     rms          rms(c)
DAV:   1    -0.192169660055E+03   -0.62770E-03   -0.12306E+00  8160   0.240E+00    0.291E-01
DAV:   2    -0.192173237988E+03   -0.35779E-02   -0.35905E-02 12160   0.765E-01    0.480E-01
DAV:   3    -0.192171484291E+03    0.17537E-02   -0.92233E-03 12520   0.725E-01    0.310E-01
DAV:   4    -0.192171315255E+03    0.16904E-03   -0.34927E-03 11480   0.418E-01    0.304E-01
DAV:   5    -0.192170512525E+03    0.80273E-03   -0.21902E-03 10280   0.366E-01    0.144E-01
DAV:   6    -0.192170380756E+03    0.13177E-03   -0.90763E-04 10520   0.172E-01    0.730E-02
DAV:   7    -0.192170335350E+03    0.45406E-04   -0.33671E-04  7920   0.122E-01
  29 F= -.19217034E+03 E0= -.19207724E+03  d E =-.130324E-02
       N       E                     dE             d eps       ncg     rms          rms(c)
DAV:   1    -0.192179859913E+03   -0.94792E-02   -0.67885E-01  8160   0.179E+00    0.229E-01
DAV:   2    -0.192181703240E+03   -0.18433E-02   -0.26052E-02 11640   0.542E-01    0.334E-01
DAV:   3    -0.192181628006E+03    0.75234E-04   -0.57466E-03 12160   0.550E-01    0.327E-01
DAV:   4    -0.192180486230E+03    0.11418E-02   -0.20228E-03 10480   0.310E-01    0.104E-01
DAV:   5    -0.192180531922E+03   -0.45691E-04   -0.85821E-04  9880   0.210E-01
  30 F= -.19218053E+03 E0= -.19208696E+03  d E =-.101966E-01
       N       E                     dE             d eps       ncg     rms          rms(c)
DAV:   1    -0.192188491248E+03   -0.80050E-02   -0.54770E-01  8160   0.159E+00    0.205E-01
DAV:   2    -0.192190726697E+03   -0.22354E-02   -0.19542E-02 12400   0.556E-01    0.408E-01
DAV:   3    -0.192189356175E+03    0.13705E-02   -0.49039E-03 12440   0.539E-01    0.207E-01
DAV:   4    -0.192189141765E+03    0.21441E-03   -0.13627E-03 10080   0.249E-01    0.169E-01
DAV:   5    -0.192188947539E+03    0.19423E-03   -0.10508E-03 10760   0.252E-01    0.121E-01
DAV:   6    -0.192188859002E+03    0.88536E-04   -0.47000E-04  8960   0.141E-01
  31 F= -.19218886E+03 E0= -.19209516E+03  d E =-.832708E-02
       N       E                     dE             d eps       ncg     rms          rms(c)
DAV:   1    -0.192195747497E+03   -0.68000E-02   -0.42193E-01  8160   0.139E+00    0.162E-01
DAV:   2    -0.192196822183E+03   -0.10747E-02   -0.15074E-02 10640   0.429E-01    0.189E-01
DAV:   3    -0.192196853237E+03   -0.31053E-04   -0.21592E-03 12120   0.369E-01    0.199E-01
DAV:   4    -0.192196429491E+03    0.42375E-03   -0.96672E-04 10240   0.241E-01    0.964E-02
DAV:   5    -0.192196501246E+03   -0.71755E-04   -0.49401E-04  8840   0.176E-01
  32 F= -.19219650E+03 E0= -.19210374E+03  d E =-.764224E-02
       N       E                     dE             d eps       ncg     rms          rms(c)
DAV:   1    -0.192202917053E+03   -0.64876E-02   -0.33811E-01  8160   0.126E+00    0.149E-01
DAV:   2    -0.192203821059E+03   -0.90401E-03   -0.10867E-02 12040   0.353E-01    0.208E-01
DAV:   3    -0.192203653753E+03    0.16731E-03   -0.19975E-03 12200   0.363E-01    0.176E-01
DAV:   4    -0.192203330610E+03    0.32314E-03   -0.55538E-04  8720   0.189E-01    0.648E-02
DAV:   5    -0.192203404325E+03   -0.73715E-04   -0.40399E-04  8760   0.140E-01
  33 F= -.19220340E+03 E0= -.19210972E+03  d E =-.690308E-02
       N       E                     dE             d eps       ncg     rms          rms(c)
DAV:   1    -0.192205775282E+03   -0.24447E-02   -0.39527E-02  8160   0.457E-01    0.915E-02
DAV:   2    -0.192207071734E+03   -0.12965E-02   -0.35288E-03 12440   0.375E-01    0.359E-01
DAV:   3    -0.192205786147E+03    0.12856E-02   -0.20690E-03 10040   0.347E-01    0.620E-02
DAV:   4    -0.192205770687E+03    0.15461E-04   -0.16638E-04  5760   0.710E-02
  34 F= -.19220577E+03 E0= -.19211238E+03  d E =-.236636E-02
       N       E                     dE             d eps       ncg     rms          rms(c)
DAV:   1    -0.192206967998E+03   -0.11819E-02   -0.61058E-02  8160   0.545E-01    0.140E-01
DAV:   2    -0.192210442414E+03   -0.34744E-02   -0.86522E-03 12080   0.695E-01    0.572E-01
DAV:   3    -0.192206870788E+03    0.35716E-02   -0.46754E-03 10560   0.575E-01    0.710E-02
DAV:   4    -0.192206923176E+03   -0.52388E-04   -0.36729E-04  8400   0.137E-01
  35 F= -.19220692E+03 E0= -.19211378E+03  d E =-.115249E-02
       N       E                     dE             d eps       ncg     rms          rms(c)
DAV:   1    -0.192208279471E+03   -0.14087E-02   -0.28151E-02  8160   0.372E-01    0.582E-02
DAV:   2    -0.192208574904E+03   -0.29543E-03   -0.13759E-03 12840   0.179E-01    0.157E-01
DAV:   3    -0.192208319583E+03    0.25532E-03   -0.56141E-04  8800   0.181E-01    0.556E-02
DAV:   4    -0.192208303498E+03    0.16085E-04   -0.10548E-04  5800   0.661E-02
  36 F= -.19220830E+03 E0= -.19211479E+03  d E =-.138032E-02
       N       E                     dE             d eps       ncg     rms          rms(c)
DAV:   1    -0.192214809516E+03   -0.64899E-02   -0.28173E-01  8160   0.117E+00    0.171E-01
DAV:   2    -0.192216575849E+03   -0.17663E-02   -0.10729E-02 11880   0.510E-01    0.436E-01
DAV:   3    -0.192214899159E+03    0.16767E-02   -0.38416E-03 12160   0.467E-01    0.132E-01
DAV:   4    -0.192214751674E+03    0.14749E-03   -0.64554E-04  9360   0.158E-01    0.106E-01
DAV:   5    -0.192214738072E+03    0.13602E-04   -0.56600E-04 10520   0.202E-01
  37 F= -.19221474E+03 E0= -.19212105E+03  d E =-.643457E-02
       N       E                     dE             d eps       ncg     rms          rms(c)
DAV:   1    -0.192216571046E+03   -0.18194E-02   -0.19745E-02  8160   0.332E-01    0.519E-02
DAV:   2    -0.192216683931E+03   -0.11288E-03   -0.84657E-04 10160   0.132E-01    0.972E-02
DAV:   3    -0.192216588290E+03    0.95641E-04   -0.29154E-04  8440   0.144E-01
  38 F= -.19221659E+03 E0= -.19212286E+03  d E =-.185022E-02
       N       E                     dE             d eps       ncg     rms          rms(c)
DAV:   1    -0.192218207764E+03   -0.15238E-02   -0.25229E-02  8160   0.347E-01    0.562E-02
DAV:   2    -0.192218450324E+03   -0.24256E-03   -0.12443E-03 12720   0.175E-01    0.137E-01
DAV:   3    -0.192218238380E+03    0.21194E-03   -0.39979E-04  8880   0.171E-01    0.444E-02
DAV:   4    -0.192218231728E+03    0.66521E-05   -0.64655E-05  5680   0.574E-02
  39 F= -.19221823E+03 E0= -.19212460E+03  d E =-.164344E-02
       N       E                     dE             d eps       ncg     rms          rms(c)
DAV:   1    -0.192224500252E+03   -0.62619E-02   -0.28996E-01  8160   0.117E+00    0.202E-01
DAV:   2    -0.192228883885E+03   -0.43836E-02   -0.14902E-02 11560   0.827E-01    0.615E-01
DAV:   3    -0.192224465854E+03    0.44180E-02   -0.59559E-03 12080   0.680E-01    0.109E-01
DAV:   4    -0.192224712312E+03   -0.24646E-03   -0.10033E-03  9760   0.241E-01    0.187E-01
DAV:   5    -0.192224378786E+03    0.33353E-03   -0.83560E-04  9080   0.237E-01    0.881E-02
DAV:   6    -0.192224370446E+03    0.83403E-05   -0.34212E-04  8400   0.139E-01
  40 F= -.19222437E+03 E0= -.19213140E+03  d E =-.613872E-02
       N       E                     dE             d eps       ncg     rms          rms(c)
DAV:   1    -0.192227620258E+03   -0.32415E-02   -0.29636E-01  8160   0.118E+00    0.206E-01
DAV:   2    -0.192234677434E+03   -0.70572E-02   -0.20202E-02 12240   0.956E-01    0.784E-01
DAV:   3    -0.192227790143E+03    0.68873E-02   -0.91840E-03 11680   0.830E-01    0.105E-01
DAV:   4    -0.192227887840E+03   -0.97697E-04   -0.89721E-04  9920   0.192E-01
  41 F= -.19222789E+03 E0= -.19213458E+03  d E =-.351739E-02
       N       E                     dE             d eps       ncg     rms          rms(c)
DAV:   1    -0.192225923810E+03    0.18663E-02   -0.10138E-01  8160   0.717E-01    0.132E-01
DAV:   2    -0.192229329581E+03   -0.34058E-02   -0.84022E-03 12320   0.672E-01    0.539E-01
DAV:   3    -0.192225985312E+03    0.33443E-02   -0.40542E-03 11360   0.566E-01    0.481E-02
DAV:   4    -0.192226049231E+03   -0.63919E-04   -0.21642E-04  6840   0.105E-01
  42 F= -.19222605E+03 E0= -.19213290E+03  d E =0.183861E-02
       N       E                     dE             d eps       ncg     rms          rms(c)
DAV:   1    -0.192226457021E+03   -0.47171E-03   -0.22393E+00  8160   0.325E+00    0.507E-01
DAV:   2    -0.192255882651E+03   -0.29426E-01   -0.11126E-01 12280   0.212E+00    0.155E+00
DAV:   3    -0.192228010351E+03    0.27872E-01   -0.39949E-02 12160   0.174E+00    0.268E-01
DAV:   4    -0.192228743330E+03   -0.73298E-03   -0.47454E-03 11440   0.519E-01    0.415E-01
DAV:   5    -0.192227041097E+03    0.17022E-02   -0.39692E-03 12160   0.524E-01    0.196E-01
DAV:   6    -0.192227270909E+03   -0.22981E-03   -0.22636E-03 11800   0.349E-01    0.240E-01
DAV:   7    -0.192226759197E+03    0.51171E-03   -0.15012E-03 10000   0.317E-01    0.105E-01
DAV:   8    -0.192226588224E+03    0.17097E-03   -0.29791E-04  7720   0.106E-01    0.204E-02
DAV:   9    -0.192226587868E+03    0.35615E-06   -0.47110E-05  7480   0.247E-02
  43 F= -.19222659E+03 E0= -.19213472E+03  d E =-.538637E-03
       N       E                     dE             d eps       ncg     rms          rms(c)
DAV:   1    -0.192227302924E+03   -0.71470E-03   -0.21689E-01  8160   0.101E+00    0.144E-01
DAV:   2    -0.192229645083E+03   -0.23422E-02   -0.96370E-03 11800   0.586E-01    0.437E-01
DAV:   3    -0.192227495763E+03    0.21493E-02   -0.33540E-03 12200   0.499E-01    0.799E-02
DAV:   4    -0.192227528671E+03   -0.32909E-04   -0.34369E-04  8440   0.127E-01
  44 F= -.19222753E+03 E0= -.19213555E+03  d E =-.940804E-03
       N       E                     dE             d eps       ncg     rms          rms(c)
DAV:   1    -0.192235646460E+03   -0.81507E-02   -0.69634E+00  8160   0.570E+00    0.829E-01
DAV:   2    -0.192315197697E+03   -0.79551E-01   -0.31368E-01 12280   0.337E+00    0.265E+00
DAV:   3    -0.192242670586E+03    0.72527E-01   -0.12518E-01 12160   0.297E+00    0.496E-01
DAV:   4    -0.192244345000E+03   -0.16744E-02   -0.15555E-02 11480   0.887E-01    0.716E-01
DAV:   5    -0.192239654134E+03    0.46909E-02   -0.12516E-02 12240   0.927E-01    0.360E-01
DAV:   6    -0.192238965821E+03    0.68831E-03   -0.51799E-03 11400   0.413E-01    0.222E-01
DAV:   7    -0.192238711001E+03    0.25482E-03   -0.26043E-03 12600   0.378E-01    0.212E-01
DAV:   8    -0.192238137585E+03    0.57342E-03   -0.90376E-04 10000   0.256E-01    0.423E-02
DAV:   9    -0.192238119436E+03    0.18149E-04   -0.90900E-05  6640   0.455E-02
  45 F= -.19223812E+03 E0= -.19214374E+03  d E =-.105908E-01
       N       E                     dE             d eps       ncg     rms          rms(c)
DAV:   1    -0.192245684387E+03   -0.75468E-02   -0.88487E-01  8160   0.202E+00    0.252E-01
DAV:   2    -0.192250780033E+03   -0.50956E-02   -0.29146E-02 12160   0.829E-01    0.634E-01
DAV:   3    -0.192246691980E+03    0.40881E-02   -0.82503E-03 12400   0.757E-01    0.186E-01
DAV:   4    -0.192246609864E+03    0.82116E-04   -0.12577E-03 10160   0.244E-01    0.186E-01
DAV:   5    -0.192246372133E+03    0.23773E-03   -0.10109E-03 10800   0.277E-01    0.123E-01
DAV:   6    -0.192246242286E+03    0.12985E-03   -0.41646E-04  9160   0.130E-01    0.402E-02
DAV:   7    -0.192246235997E+03    0.62889E-05   -0.11094E-04  7040   0.801E-02
  46 F= -.19224624E+03 E0= -.19215169E+03  d E =-.811656E-02
       N       E                     dE             d eps       ncg     rms          rms(c)
DAV:   1    -0.192219319836E+03    0.26922E-01   -0.10286E+01  8160   0.697E+00    0.925E-01
DAV:   2    -0.192301887344E+03   -0.82568E-01   -0.41408E-01 12320   0.337E+00    0.264E+00
DAV:   3    -0.192234573475E+03    0.67314E-01   -0.13851E-01 12360   0.292E+00    0.740E-01
DAV:   4    -0.192237819822E+03   -0.32463E-02   -0.25997E-02 12240   0.130E+00    0.102E+00
DAV:   5    -0.192226836663E+03    0.10983E-01   -0.20206E-02 12360   0.119E+00    0.308E-01
DAV:   6    -0.192227291808E+03   -0.45515E-03   -0.74326E-03 11800   0.532E-01    0.354E-01
DAV:   7    -0.192225865995E+03    0.14258E-02   -0.39944E-03 11720   0.519E-01    0.159E-01
DAV:   8    -0.192225539070E+03    0.32692E-03   -0.67728E-04 10120   0.188E-01    0.451E-02
DAV:   9    -0.192225508521E+03    0.30550E-04   -0.12004E-04  8160   0.427E-02
  47 F= -.19222551E+03 E0= -.19213214E+03  d E =0.207275E-01
       N       E                     dE             d eps       ncg     rms          rms(c)
DAV:   1    -0.192226820516E+03   -0.12814E-02   -0.21757E-01  8160   0.102E+00    0.156E-01
DAV:   2    -0.192228468018E+03   -0.16475E-02   -0.98730E-03 10800   0.551E-01    0.370E-01
DAV:   3    -0.192226967166E+03    0.15009E-02   -0.28419E-03 12160   0.449E-01    0.111E-01
DAV:   4    -0.192226985842E+03   -0.18675E-04   -0.54581E-04  8800   0.188E-01
  48 F= -.19222699E+03 E0= -.19213396E+03  d E =-.147732E-02
       N       E                     dE             d eps       ncg     rms          rms(c)
DAV:   1    -0.192242348466E+03   -0.15381E-01   -0.83827E-01  8160   0.198E+00    0.244E-01
DAV:   2    -0.192243690909E+03   -0.13424E-02   -0.23649E-02 10760   0.480E-01    0.247E-01
DAV:   3    -0.192244198509E+03   -0.50760E-03   -0.45624E-03 12440   0.549E-01    0.334E-01
DAV:   4    -0.192242927943E+03    0.12706E-02   -0.17491E-03 11200   0.364E-01    0.102E-01
DAV:   5    -0.192243179246E+03   -0.25130E-03   -0.10900E-03 10280   0.256E-01    0.186E-01
DAV:   6    -0.192242859080E+03    0.32017E-03   -0.74134E-04  8640   0.227E-01    0.740E-02
DAV:   7    -0.192242830818E+03    0.28262E-04   -0.21478E-04  7640   0.112E-01
  49 F= -.19224283E+03 E0= -.19215097E+03  d E =-.158450E-01
       N       E                     dE             d eps       ncg     rms          rms(c)
DAV:   1    -0.192218260521E+03    0.24599E-01   -0.20340E+00  8160   0.308E+00    0.378E-01
DAV:   2    -0.192222772595E+03   -0.45121E-02   -0.55451E-02 11360   0.898E-01    0.574E-01
DAV:   3    -0.192221406225E+03    0.13664E-02   -0.14645E-02 12400   0.911E-01    0.464E-01
DAV:   4    -0.192219767241E+03    0.16390E-02   -0.44275E-03 11800   0.493E-01    0.268E-01
DAV:   5    -0.192219255923E+03    0.51132E-03   -0.26899E-03 11800   0.443E-01    0.207E-01
DAV:   6    -0.192218934395E+03    0.32153E-03   -0.14842E-03 12000   0.261E-01    0.901E-02
DAV:   7    -0.192218768498E+03    0.16590E-03   -0.39745E-04  7960   0.105E-01    0.462E-02
DAV:   8    -0.192218753326E+03    0.15172E-04   -0.82495E-05  6920   0.762E-02
  50 F= -.19221875E+03 E0= -.19212653E+03  d E =0.240775E-01
       N       E                     dE             d eps       ncg     rms          rms(c)
DAV:   1    -0.192223184270E+03   -0.44158E-02   -0.21460E-01  8160   0.105E+00    0.226E-01
DAV:   2    -0.192225846500E+03   -0.26622E-02   -0.16094E-02 11720   0.751E-01    0.552E-01
DAV:   3    -0.192222787495E+03    0.30590E-02   -0.55818E-03 11480   0.623E-01    0.162E-01
DAV:   4    -0.192223080084E+03   -0.29259E-03   -0.20412E-03 10680   0.350E-01    0.270E-01
DAV:   5    -0.192222354991E+03    0.72509E-03   -0.16114E-03 10080   0.317E-01    0.992E-02
DAV:   6    -0.192222212712E+03    0.14228E-03   -0.48232E-04  8560   0.116E-01    0.380E-02
DAV:   7    -0.192222223792E+03   -0.11080E-04   -0.11181E-04  6720   0.918E-02
  51 F= -.19222222E+03 E0= -.19212951E+03  d E =-.347047E-02
       N       E                     dE             d eps       ncg     rms          rms(c)
DAV:   1    -0.192233827646E+03   -0.11615E-01   -0.51273E-01  8160   0.156E+00    0.214E-01
DAV:   2    -0.192234806132E+03   -0.97849E-03   -0.15403E-02 10880   0.485E-01    0.307E-01
DAV:   3    -0.192234460152E+03    0.34598E-03   -0.37102E-03 11960   0.488E-01    0.262E-01
DAV:   4    -0.192233940578E+03    0.51957E-03   -0.17814E-03 10280   0.315E-01    0.162E-01
DAV:   5    -0.192233860212E+03    0.80366E-04   -0.11335E-03  9960   0.277E-01    0.142E-01
DAV:   6    -0.192233638511E+03    0.22170E-03   -0.58319E-04  9320   0.171E-01    0.469E-02
DAV:   7    -0.192233625202E+03    0.13309E-04   -0.13830E-04  6640   0.761E-02
  52 F= -.19223363E+03 E0= -.19214129E+03  d E =-.114014E-01
       N       E                     dE             d eps       ncg     rms          rms(c)
DAV:   1    -0.192243867476E+03   -0.10229E-01   -0.35304E-01  8160   0.128E+00    0.162E-01
DAV:   2    -0.192244700619E+03   -0.83314E-03   -0.98447E-03 11200   0.365E-01    0.247E-01
DAV:   3    -0.192244414076E+03    0.28654E-03   -0.23473E-03 12480   0.387E-01    0.197E-01
DAV:   4    -0.192244110642E+03    0.30343E-03   -0.80589E-04  9680   0.208E-01    0.973E-02
DAV:   5    -0.192244104622E+03    0.60204E-05   -0.49611E-04  9160   0.184E-01
  53 F= -.19224410E+03 E0= -.19215199E+03  d E =-.104794E-01
       N       E                     dE             d eps       ncg     rms          rms(c)
DAV:   1    -0.192210740633E+03    0.33370E-01   -0.47397E+00  8160   0.473E+00    0.619E-01
DAV:   2    -0.192235475487E+03   -0.24735E-01   -0.15323E-01 11640   0.179E+00    0.161E+00
DAV:   3    -0.192215372799E+03    0.20103E-01   -0.65666E-02 12360   0.176E+00    0.565E-01
DAV:   4    -0.192212880058E+03    0.24927E-02   -0.95239E-03 12200   0.559E-01    0.357E-01
DAV:   5    -0.192212505705E+03    0.37435E-03   -0.83087E-03 12640   0.692E-01    0.402E-01
DAV:   6    -0.192211153237E+03    0.13525E-02   -0.43767E-03 11800   0.543E-01    0.193E-01
DAV:   7    -0.192210690345E+03    0.46289E-03   -0.14071E-03 10320   0.239E-01    0.112E-01
DAV:   8    -0.192210571670E+03    0.11868E-03   -0.39986E-04 10080   0.168E-01    0.589E-02
DAV:   9    -0.192210522135E+03    0.49534E-04   -0.83222E-05  6240   0.685E-02
  54 F= -.19221052E+03 E0= -.19211749E+03  d E =0.335825E-01
       N       E                     dE             d eps       ncg     rms          rms(c)
DAV:   1    -0.192206060085E+03    0.45116E-02   -0.36779E-01  8160   0.133E+00    0.177E-01
DAV:   2    -0.192206552040E+03   -0.49196E-03   -0.10326E-02 11400   0.381E-01    0.209E-01
DAV:   3    -0.192206437324E+03    0.11472E-03   -0.22978E-03 12240   0.382E-01    0.188E-01
DAV:   4    -0.192206078991E+03    0.35833E-03   -0.10666E-03 10120   0.241E-01    0.120E-01
DAV:   5    -0.192206116931E+03   -0.37940E-04   -0.77831E-04  9480   0.209E-01
  55 F= -.19220612E+03 E0= -.19211423E+03  d E =0.440520E-02
       N       E                     dE             d eps       ncg     rms          rms(c)
DAV:   1    -0.192202437109E+03    0.36419E-02   -0.82472E-01  8160   0.198E+00    0.264E-01
DAV:   2    -0.192204157223E+03   -0.17201E-02   -0.23659E-02 11320   0.618E-01    0.373E-01
DAV:   3    -0.192203544384E+03    0.61284E-03   -0.58720E-03 12280   0.615E-01    0.301E-01
DAV:   4    -0.192202811120E+03    0.73326E-03   -0.23046E-03 10720   0.361E-01    0.206E-01
DAV:   5    -0.192202600422E+03    0.21070E-03   -0.15726E-03 10280   0.305E-01    0.152E-01
DAV:   6    -0.192202488195E+03    0.11223E-03   -0.75962E-04  9720   0.190E-01    0.996E-02
DAV:   7    -0.192202383064E+03    0.10513E-03   -0.28991E-04  7880   0.140E-01    0.474E-02
DAV:   8    -0.192202355775E+03    0.27289E-04   -0.61651E-05  6480   0.544E-02
  56 F= -.19220236E+03 E0= -.19211047E+03  d E =0.376116E-02
       N       E                     dE             d eps       ncg     rms          rms(c)
DAV:   1    -0.192207337660E+03   -0.49546E-02   -0.49904E-01  8160   0.155E+00    0.199E-01
DAV:   2    -0.192208146837E+03   -0.80918E-03   -0.15146E-02 11640   0.452E-01    0.231E-01
DAV:   3    -0.192208019943E+03    0.12689E-03   -0.29014E-03 12280   0.437E-01    0.210E-01
DAV:   4    -0.192207445606E+03    0.57434E-03   -0.11521E-03 10280   0.251E-01    0.980E-02
DAV:   5    -0.192207619141E+03   -0.17354E-03   -0.86380E-04 10200   0.214E-01    0.173E-01
DAV:   6    -0.192207364724E+03    0.25442E-03   -0.66566E-04  9160   0.186E-01    0.571E-02
DAV:   7    -0.192207322619E+03    0.42105E-04   -0.95939E-05  6120   0.615E-02
  57 F= -.19220732E+03 E0= -.19211485E+03  d E =-.496684E-02
       N       E                     dE             d eps       ncg     rms          rms(c)
DAV:   1    -0.192208651829E+03   -0.12871E-02   -0.63846E-02  8160   0.537E-01    0.556E-02
DAV:   2    -0.192208815664E+03   -0.16383E-03   -0.22533E-03 11800   0.136E-01    0.511E-02
DAV:   3    -0.192208851648E+03   -0.35984E-04   -0.20602E-04  8640   0.120E-01
  58 F= -.19220885E+03 E0= -.19211603E+03  d E =-.152903E-02
       N       E                     dE             d eps       ncg     rms          rms(c)
DAV:   1    -0.192212356794E+03   -0.35411E-02   -0.18344E-01  8160   0.929E-01    0.113E-01
DAV:   2    -0.192212616543E+03   -0.25975E-03   -0.50498E-03 11280   0.220E-01    0.104E-01
DAV:   3    -0.192212847987E+03   -0.23144E-03   -0.11252E-03 11200   0.253E-01    0.188E-01
DAV:   4    -0.192212488962E+03    0.35903E-03   -0.59100E-04  8960   0.187E-01    0.567E-02
DAV:   5    -0.192212548174E+03   -0.59213E-04   -0.24862E-04  7960   0.128E-01
  59 F= -.19221255E+03 E0= -.19212035E+03  d E =-.369653E-02
       N       E                     dE             d eps       ncg     rms          rms(c)
DAV:   1    -0.192211677231E+03    0.81173E-03   -0.22501E-02  8160   0.367E-01    0.668E-02
DAV:   2    -0.192211967868E+03   -0.29064E-03   -0.13165E-03 11760   0.225E-01    0.169E-01
DAV:   3    -0.192211639373E+03    0.32850E-03   -0.57761E-04  8880   0.214E-01    0.541E-02
DAV:   4    -0.192211616506E+03    0.22866E-04   -0.94700E-05  6000   0.699E-02
  60 F= -.19221162E+03 E0= -.19211906E+03  d E =0.931668E-03
       N       E                     dE             d eps       ncg     rms          rms(c)
DAV:   1    -0.192213989621E+03   -0.23502E-02   -0.17736E-01  8160   0.934E-01    0.153E-01
DAV:   2    -0.192214156891E+03   -0.16727E-03   -0.76652E-03 11600   0.316E-01    0.183E-01
DAV:   3    -0.192214201208E+03   -0.44317E-04   -0.22228E-03 11800   0.360E-01    0.213E-01
DAV:   4    -0.192213798096E+03    0.40311E-03   -0.12465E-03  9640   0.255E-01    0.123E-01
DAV:   5    -0.192213724180E+03    0.73917E-04   -0.56564E-04  8800   0.193E-01
  61 F= -.19221372E+03 E0= -.19212004E+03  d E =-.210767E-02
       N       E                     dE             d eps       ncg     rms          rms(c)
DAV:   1    -0.192216517528E+03   -0.27194E-02   -0.14389E-01  8160   0.891E-01    0.165E-01
DAV:   2    -0.192216460919E+03    0.56610E-04   -0.60815E-03 10840   0.275E-01    0.185E-01
DAV:   3    -0.192216378585E+03    0.82333E-04   -0.24839E-03 10400   0.366E-01    0.208E-01
DAV:   4    -0.192215951931E+03    0.42665E-03   -0.11083E-03 10040   0.264E-01    0.958E-02
DAV:   5    -0.192215941633E+03    0.10298E-04   -0.59020E-04  8840   0.161E-01
  62 F= -.19221594E+03 E0= -.19212257E+03  d E =-.221745E-02
       N       E                     dE             d eps       ncg     rms          rms(c)
DAV:   1    -0.192216816041E+03   -0.86411E-03   -0.42759E-01  8160   0.142E+00    0.224E-01
DAV:   2    -0.192217734418E+03   -0.91838E-03   -0.18391E-02 11280   0.456E-01    0.312E-01
DAV:   3    -0.192217608916E+03    0.12550E-03   -0.58841E-03 12360   0.545E-01    0.319E-01
DAV:   4    -0.192216626672E+03    0.98224E-03   -0.23028E-03 10880   0.320E-01    0.116E-01
DAV:   5    -0.192216447386E+03    0.17929E-03   -0.94560E-04 10160   0.159E-01    0.953E-02
DAV:   6    -0.192216424279E+03    0.23107E-04   -0.46662E-04  9040   0.178E-01
  63 F= -.19221642E+03 E0= -.19212273E+03  d E =-.482646E-03
       N       E                     dE             d eps       ncg     rms          rms(c)
DAV:   1    -0.192216548552E+03   -0.10117E-03   -0.13976E-03  9400   0.131E-01    0.286E-02
DAV:   2    -0.192216651709E+03   -0.10316E-03   -0.23112E-04  7960   0.123E-01    0.970E-02
DAV:   3    -0.192216534157E+03    0.11755E-03   -0.13298E-04  6160   0.113E-01    0.163E-02
DAV:   4    -0.192216538186E+03   -0.40283E-05   -0.20900E-05  5680   0.256E-02
  64 F= -.19221654E+03 E0= -.19212294E+03  d E =-.113906E-03
       N       E                     dE             d eps       ncg     rms          rms(c)
DAV:   1    -0.192221251300E+03   -0.47171E-02   -0.25862E-01  8160   0.110E+00    0.133E-01
DAV:   2    -0.192221824724E+03   -0.57342E-03   -0.73889E-03 10880   0.324E-01    0.185E-01
DAV:   3    -0.192221665037E+03    0.15969E-03   -0.15087E-03 11960   0.319E-01    0.151E-01
DAV:   4    -0.192221419394E+03    0.24564E-03   -0.46187E-04  8280   0.169E-01    0.579E-02
DAV:   5    -0.192221477128E+03   -0.57735E-04   -0.35488E-04  8240   0.131E-01
  65 F= -.19222148E+03 E0= -.19212804E+03  d E =-.493894E-02
       N       E                     dE             d eps       ncg     rms          rms(c)
DAV:   1    -0.192216630521E+03    0.47889E-02   -0.20990E-01  8160   0.100E+00    0.124E-01
DAV:   2    -0.192217518304E+03   -0.88778E-03   -0.68673E-03 11640   0.317E-01    0.256E-01
DAV:   3    -0.192216958147E+03    0.56016E-03   -0.20864E-03 11200   0.328E-01    0.142E-01
DAV:   4    -0.192216791576E+03    0.16657E-03   -0.56137E-04  8280   0.149E-01    0.614E-02
DAV:   5    -0.192216738297E+03    0.53279E-04   -0.21598E-04  6400   0.813E-02
  66 F= -.19221674E+03 E0= -.19212322E+03  d E =0.473883E-02
       N       E                     dE             d eps       ncg     rms          rms(c)
DAV:   1    -0.192217659925E+03   -0.86835E-03   -0.88722E-02  8160   0.678E-01    0.167E-01
DAV:   2    -0.192217880883E+03   -0.22096E-03   -0.53310E-03 11520   0.423E-01    0.291E-01
DAV:   3    -0.192217103805E+03    0.77708E-03   -0.23737E-03 11400   0.408E-01    0.144E-01
DAV:   4    -0.192217059635E+03    0.44170E-04   -0.11878E-03 10120   0.233E-01    0.167E-01
DAV:   5    -0.192216871474E+03    0.18816E-03   -0.91199E-04  9280   0.236E-01    0.107E-01
DAV:   6    -0.192216729488E+03    0.14199E-03   -0.33180E-04  7200   0.121E-01    0.294E-02
DAV:   7    -0.192216732962E+03   -0.34741E-05   -0.65200E-05  6320   0.549E-02
  67 F= -.19221673E+03 E0= -.19212368E+03  d E =0.533489E-05
       N       E                     dE             d eps       ncg     rms          rms(c)
DAV:   1    -0.192221875165E+03   -0.51457E-02   -0.28422E-01  8160   0.116E+00    0.153E-01
DAV:   2    -0.192222610198E+03   -0.73503E-03   -0.97541E-03 11920   0.388E-01    0.221E-01
DAV:   3    -0.192222297285E+03    0.31291E-03   -0.18438E-03 12080   0.345E-01    0.153E-01
DAV:   4    -0.192222150242E+03    0.14704E-03   -0.82412E-04 10160   0.207E-01    0.134E-01
DAV:   5    -0.192222042197E+03    0.10805E-03   -0.63864E-04  9120   0.195E-01    0.958E-02
DAV:   6    -0.192221965010E+03    0.77187E-04   -0.32318E-04  7440   0.117E-01
  68 F= -.19222197E+03 E0= -.19212848E+03  d E =-.523205E-02
       N       E                     dE             d eps       ncg     rms          rms(c)
DAV:   1    -0.192224965744E+03   -0.29235E-02   -0.91491E-02  8160   0.656E-01    0.819E-02
DAV:   2    -0.192225215245E+03   -0.24950E-03   -0.28824E-03 11720   0.212E-01    0.122E-01
DAV:   3    -0.192225101693E+03    0.11355E-03   -0.59328E-04  9720   0.196E-01    0.788E-02
DAV:   4    -0.192225049308E+03    0.52385E-04   -0.14484E-04  6000   0.974E-02
  69 F= -.19222505E+03 E0= -.19213159E+03  d E =-.308430E-02
       N       E                     dE             d eps       ncg     rms          rms(c)
DAV:   1    -0.192224094058E+03    0.10076E-02   -0.18486E-02  8160   0.305E-01    0.652E-02
DAV:   2    -0.192225039280E+03   -0.94522E-03   -0.20063E-03 11600   0.326E-01    0.294E-01
DAV:   3    -0.192224085679E+03    0.95360E-03   -0.11558E-03 10080   0.276E-01    0.333E-02
DAV:   4    -0.192224091327E+03   -0.56478E-05   -0.48982E-05  5720   0.525E-02
  70 F= -.19222409E+03 E0= -.19213050E+03  d E =0.957981E-03
       N       E                     dE             d eps       ncg     rms          rms(c)
DAV:   1    -0.192230703948E+03   -0.66183E-02   -0.40039E-01  8160   0.137E+00    0.162E-01
DAV:   2    -0.192231239454E+03   -0.53551E-03   -0.11218E-02 11240   0.300E-01    0.139E-01
DAV:   3    -0.192231625207E+03   -0.38575E-03   -0.20175E-03 12560   0.329E-01    0.252E-01
DAV:   4    -0.192231039713E+03    0.58549E-03   -0.12599E-03 10400   0.279E-01    0.929E-02
DAV:   5    -0.192231023033E+03    0.16680E-04   -0.45847E-04  8560   0.138E-01
  71 F= -.19223102E+03 E0= -.19213715E+03  d E =-.693171E-02
       N       E                     dE             d eps       ncg     rms          rms(c)
DAV:   1    -0.192231942220E+03   -0.90251E-03   -0.71415E-03  8160   0.245E-01    0.821E-02
DAV:   2    -0.192233164967E+03   -0.12227E-02   -0.25102E-03 12160   0.417E-01    0.327E-01
DAV:   3    -0.192231870623E+03    0.12943E-02   -0.15112E-03 10160   0.352E-01    0.358E-02
DAV:   4    -0.192231879776E+03   -0.91530E-05   -0.70471E-05  5920   0.498E-02
  72 F= -.19223188E+03 E0= -.19213813E+03  d E =-.856743E-03
       N       E                     dE             d eps       ncg     rms          rms(c)
DAV:   1    -0.192228069062E+03    0.38016E-02   -0.12434E-01  8160   0.762E-01    0.108E-01
DAV:   2    -0.192229472430E+03   -0.14034E-02   -0.48000E-03 12680   0.438E-01    0.353E-01
DAV:   3    -0.192228085737E+03    0.13867E-02   -0.21526E-03 10720   0.383E-01    0.736E-02
DAV:   4    -0.192228123906E+03   -0.38169E-04   -0.31074E-04  7840   0.119E-01
  73 F= -.19222812E+03 E0= -.19213423E+03  d E =0.375587E-02
       N       E                     dE             d eps       ncg     rms          rms(c)
DAV:   1    -0.192232286446E+03   -0.42007E-02   -0.17766E-01  8160   0.948E-01    0.181E-01
DAV:   2    -0.192233045939E+03   -0.75949E-03   -0.94313E-03 11640   0.508E-01    0.322E-01
DAV:   3    -0.192232002609E+03    0.10433E-02   -0.29199E-03 11160   0.460E-01    0.144E-01
DAV:   4    -0.192231823148E+03    0.17946E-03   -0.93400E-04 10040   0.211E-01    0.129E-01
DAV:   5    -0.192231778852E+03    0.44296E-04   -0.84399E-04  9440   0.223E-01
  74 F= -.19223178E+03 E0= -.19213789E+03  d E =-.365495E-02
       N       E                     dE             d eps       ncg     rms          rms(c)
DAV:   1    -0.192238443060E+03   -0.66199E-02   -0.23949E-01  8160   0.108E+00    0.165E-01
DAV:   2    -0.192240052439E+03   -0.16094E-02   -0.85337E-03 12320   0.504E-01    0.399E-01
DAV:   3    -0.192238418177E+03    0.16343E-02   -0.35632E-03 11720   0.485E-01    0.144E-01
DAV:   4    -0.192238339725E+03    0.78452E-04   -0.88703E-04  9640   0.182E-01
  75 F= -.19223834E+03 E0= -.19214472E+03  d E =-.656087E-02
       N       E                     dE             d eps       ncg     rms          rms(c)
DAV:   1    -0.192228280685E+03    0.10137E-01   -0.84283E-01  8160   0.204E+00    0.320E-01
DAV:   2    -0.192233677751E+03   -0.53971E-02   -0.32621E-02 12560   0.104E+00    0.740E-01
DAV:   3    -0.192227851479E+03    0.58263E-02   -0.11999E-02 11720   0.940E-01    0.229E-01
DAV:   4    -0.192227356125E+03    0.49535E-03   -0.23007E-03 11480   0.274E-01    0.171E-01
DAV:   5    -0.192227521952E+03   -0.16583E-03   -0.21822E-03 11800   0.334E-01    0.244E-01
DAV:   6    -0.192226947582E+03    0.57437E-03   -0.13283E-03 10280   0.264E-01    0.706E-02
DAV:   7    -0.192226899774E+03    0.47808E-04   -0.28570E-04  6920   0.986E-02
  76 F= -.19222690E+03 E0= -.19213228E+03  d E =0.114400E-01
       N       E                     dE             d eps       ncg     rms          rms(c)
DAV:   1    -0.192254676443E+03   -0.27729E-01   -0.25743E+00  8160   0.355E+00    0.556E-01
DAV:   2    -0.192257305602E+03   -0.26292E-02   -0.76785E-02 11800   0.110E+00    0.792E-01
DAV:   3    -0.192255024710E+03    0.22809E-02   -0.27644E-02 12360   0.133E+00    0.710E-01
DAV:   4    -0.192250434298E+03    0.45904E-02   -0.12936E-02 11320   0.799E-01    0.330E-01
DAV:   5    -0.192250599051E+03   -0.16475E-03   -0.64773E-03 11520   0.636E-01    0.414E-01
DAV:   6    -0.192248818652E+03    0.17804E-02   -0.39743E-03 11560   0.524E-01    0.130E-01
DAV:   7    -0.192248594453E+03    0.22420E-03   -0.88188E-04 10160   0.149E-01    0.421E-02
DAV:   8    -0.192248569826E+03    0.24627E-04   -0.89354E-05  7560   0.432E-02
  77 F= -.19224857E+03 E0= -.19215513E+03  d E =-.216701E-01
       N       E                     dE             d eps       ncg     rms          rms(c)
DAV:   1    -0.192249117193E+03   -0.52274E-03   -0.62911E-02  8160   0.581E-01    0.158E-01
DAV:   2    -0.192249619029E+03   -0.50184E-03   -0.44303E-03 11600   0.453E-01    0.318E-01
DAV:   3    -0.192248471639E+03    0.11474E-02   -0.21892E-03 11520   0.415E-01    0.961E-02
DAV:   4    -0.192248398588E+03    0.73051E-04   -0.65394E-04  9120   0.155E-01
  78 F= -.19224840E+03 E0= -.19215402E+03  d E =0.171238E-03
       N       E                     dE             d eps       ncg     rms          rms(c)
DAV:   1    -0.192263593973E+03   -0.15122E-01   -0.89367E-01  8160   0.210E+00    0.324E-01
DAV:   2    -0.192263569722E+03    0.24251E-04   -0.28304E-02 11840   0.573E-01    0.307E-01
DAV:   3    -0.192263888864E+03   -0.31914E-03   -0.60426E-03 11440   0.672E-01    0.364E-01
DAV:   4    -0.192262263920E+03    0.16249E-02   -0.35529E-03 12240   0.480E-01    0.164E-01
DAV:   5    -0.192262090770E+03    0.17315E-03   -0.18427E-03 11000   0.252E-01    0.165E-01
DAV:   6    -0.192261915165E+03    0.17560E-03   -0.97002E-04 10400   0.249E-01    0.109E-01
DAV:   7    -0.192261776093E+03    0.13907E-03   -0.21034E-04  6640   0.109E-01    0.279E-02
DAV:   8    -0.192261777640E+03   -0.15468E-05   -0.54591E-05  6560   0.554E-02
  79 F= -.19226178E+03 E0= -.19216728E+03  d E =-.133791E-01
       N       E                     dE             d eps       ncg     rms          rms(c)
DAV:   1    -0.192269519097E+03   -0.77430E-02   -0.18567E-01  8160   0.957E-01    0.161E-01
DAV:   2    -0.192269630126E+03   -0.11103E-03   -0.67941E-03 11920   0.322E-01    0.201E-01
DAV:   3    -0.192269472208E+03    0.15792E-03   -0.19040E-03 11760   0.353E-01    0.185E-01
DAV:   4    -0.192269246623E+03    0.22559E-03   -0.11157E-03 10000   0.250E-01    0.132E-01
DAV:   5    -0.192269133952E+03    0.11267E-03   -0.67746E-04  8440   0.205E-01    0.108E-01
DAV:   6    -0.192269009149E+03    0.12480E-03   -0.34648E-04  7640   0.143E-01    0.379E-02
DAV:   7    -0.192268996585E+03    0.12565E-04   -0.76324E-05  6320   0.458E-02
  80 F= -.19226900E+03 E0= -.19217512E+03  d E =-.721894E-02
       N       E                     dE             d eps       ncg     rms          rms(c)
DAV:   1    -0.192295173186E+03   -0.26164E-01   -0.14825E+00  8160   0.263E+00    0.359E-01
DAV:   2    -0.192299604097E+03   -0.44309E-02   -0.41092E-02 11240   0.877E-01    0.642E-01
DAV:   3    -0.192296152260E+03    0.34518E-02   -0.11670E-02 12080   0.890E-01    0.353E-01
DAV:   4    -0.192295085043E+03    0.10672E-02   -0.33599E-03 11400   0.404E-01    0.186E-01
DAV:   5    -0.192295005142E+03    0.79901E-04   -0.21784E-03 10440   0.357E-01    0.204E-01
DAV:   6    -0.192294647382E+03    0.35776E-03   -0.13045E-03 10440   0.300E-01    0.108E-01
DAV:   7    -0.192294497053E+03    0.15033E-03   -0.39554E-04  8560   0.128E-01    0.470E-02
DAV:   8    -0.192294484138E+03    0.12915E-04   -0.87930E-05  6600   0.860E-02
  81 F= -.19229448E+03 E0= -.19220180E+03  d E =-.254876E-01
       N       E                     dE             d eps       ncg     rms          rms(c)
DAV:   1    -0.192291184417E+03    0.33126E-02   -0.27880E-02  8160   0.363E-01    0.477E-02
DAV:   2    -0.192291324674E+03   -0.14026E-03   -0.92392E-04 10880   0.155E-01    0.104E-01
DAV:   3    -0.192291207295E+03    0.11738E-03   -0.24627E-04  7960   0.135E-01    0.393E-02
DAV:   4    -0.192291208463E+03   -0.11677E-05   -0.53461E-05  5720   0.607E-02
  82 F= -.19229121E+03 E0= -.19219831E+03  d E =0.327567E-02
       N       E                     dE             d eps       ncg     rms          rms(c)
DAV:   1    -0.192320296522E+03   -0.29089E-01   -0.16404E+00  8160   0.278E+00    0.362E-01
DAV:   2    -0.192326169674E+03   -0.58732E-02   -0.48034E-02 11640   0.104E+00    0.697E-01
DAV:   3    -0.192321748189E+03    0.44215E-02   -0.12930E-02 12360   0.954E-01    0.319E-01
DAV:   4    -0.192320861974E+03    0.88621E-03   -0.26598E-03 11200   0.374E-01    0.200E-01
DAV:   5    -0.192320780318E+03    0.81656E-04   -0.19001E-03 11200   0.388E-01    0.211E-01
DAV:   6    -0.192320370798E+03    0.40952E-03   -0.13851E-03 11000   0.278E-01    0.866E-02
DAV:   7    -0.192320247930E+03    0.12287E-03   -0.31832E-04  8080   0.107E-01    0.491E-02
DAV:   8    -0.192320224815E+03    0.23114E-04   -0.71598E-05  6880   0.754E-02
  83 F= -.19232022E+03 E0= -.19222790E+03  d E =-.290164E-01
       N       E                     dE             d eps       ncg     rms          rms(c)
DAV:   1    -0.192323376271E+03   -0.31283E-02   -0.17439E-02  8160   0.287E-01    0.447E-02
DAV:   2    -0.192323509653E+03   -0.13338E-03   -0.68256E-04 10920   0.140E-01    0.110E-01
DAV:   3    -0.192323381167E+03    0.12849E-03   -0.21743E-04  8440   0.129E-01    0.315E-02
DAV:   4    -0.192323382683E+03   -0.15162E-05   -0.32982E-05  5760   0.462E-02
  84 F= -.19232338E+03 E0= -.19223112E+03  d E =-.315787E-02
       N       E                     dE             d eps       ncg     rms          rms(c)
DAV:   1    -0.192356346379E+03   -0.32965E-01   -0.18235E+00  8160   0.292E+00    0.402E-01
DAV:   2    -0.192364853194E+03   -0.85068E-02   -0.55037E-02 11080   0.116E+00    0.841E-01
DAV:   3    -0.192357378993E+03    0.74742E-02   -0.15690E-02 12000   0.108E+00    0.309E-01
DAV:   4    -0.192356597841E+03    0.78115E-03   -0.29844E-03 11160   0.390E-01    0.211E-01
DAV:   5    -0.192356557753E+03    0.40088E-04   -0.24616E-03 11640   0.428E-01    0.223E-01
DAV:   6    -0.192356011197E+03    0.54656E-03   -0.13796E-03 10640   0.292E-01    0.761E-02
DAV:   7    -0.192355909432E+03    0.10177E-03   -0.27291E-04  7480   0.755E-02    0.248E-02
DAV:   8    -0.192355903215E+03    0.62166E-05   -0.49466E-05  7520   0.374E-02
  85 F= -.19235590E+03 E0= -.19226453E+03  d E =-.325205E-01
       N       E                     dE             d eps       ncg     rms          rms(c)
DAV:   1    -0.192368416111E+03   -0.12507E-01   -0.27139E-01  8160   0.113E+00    0.158E-01
DAV:   2    -0.192369913189E+03   -0.14971E-02   -0.91308E-03 11360   0.499E-01    0.352E-01
DAV:   3    -0.192368629980E+03    0.12832E-02   -0.27231E-03 12320   0.451E-01    0.119E-01
DAV:   4    -0.192368462977E+03    0.16700E-03   -0.33031E-04  8640   0.112E-01    0.486E-02
DAV:   5    -0.192368472975E+03   -0.99980E-05   -0.23162E-04  7520   0.923E-02
  86 F= -.19236847E+03 E0= -.19227726E+03  d E =-.125698E-01
       N       E                     dE             d eps       ncg     rms          rms(c)
DAV:   1    -0.192400818683E+03   -0.32356E-01   -0.20088E+00  8160   0.306E+00    0.403E-01
DAV:   2    -0.192410461269E+03   -0.96426E-02   -0.61255E-02 11240   0.121E+00    0.847E-01
DAV:   3    -0.192402636822E+03    0.78244E-02   -0.15929E-02 12080   0.110E+00    0.294E-01
DAV:   4    -0.192401851225E+03    0.78560E-03   -0.24396E-03 11280   0.358E-01    0.202E-01
DAV:   5    -0.192401776117E+03    0.75108E-04   -0.19711E-03 12000   0.398E-01    0.195E-01
DAV:   6    -0.192401342839E+03    0.43328E-03   -0.93843E-04 10200   0.238E-01    0.530E-02
DAV:   7    -0.192401279573E+03    0.63265E-04   -0.12996E-04  6640   0.592E-02
  87 F= -.19240128E+03 E0= -.19231049E+03  d E =-.328066E-01
       N       E                     dE             d eps       ncg     rms          rms(c)
DAV:   1    -0.192442220977E+03   -0.40878E-01   -0.39233E+01  8160   0.139E+01    0.154E+00
DAV:   2    -0.192533565671E+03   -0.91345E-01   -0.12015E+00 11040   0.356E+00    0.181E+00
DAV:   3    -0.192525521794E+03    0.80439E-02   -0.16576E-01 12160   0.352E+00    0.177E+00
DAV:   4    -0.192486836573E+03    0.38685E-01   -0.63322E-02 12160   0.215E+00    0.572E-01
DAV:   5    -0.192491578995E+03   -0.47424E-02   -0.28689E-02 12600   0.128E+00    0.870E-01
DAV:   6    -0.192483067273E+03    0.85117E-02   -0.19851E-02 11760   0.123E+00    0.339E-01
DAV:   7    -0.192480994554E+03    0.20727E-02   -0.34269E-03 11560   0.384E-01    0.675E-02
DAV:   8    -0.192480954160E+03    0.40394E-04   -0.57134E-04 11160   0.795E-02
  88 F= -.19248095E+03 E0= -.19239275E+03  d E =-.796746E-01
       N       E                     dE             d eps       ncg     rms          rms(c)
DAV:   1    -0.192459845185E+03    0.21149E-01   -0.13787E+01  8160   0.805E+00    0.125E+00
DAV:   2    -0.192633796967E+03   -0.17395E+00   -0.53110E-01 10920   0.488E+00    0.427E+00
DAV:   3    -0.192463997957E+03    0.16980E+00   -0.38913E-01 11840   0.493E+00    0.746E-01
DAV:   4    -0.192461193908E+03    0.28040E-02   -0.21056E-02 12280   0.107E+00    0.744E-01
DAV:   5    -0.192455363147E+03    0.58308E-02   -0.15538E-02 11840   0.113E+00    0.416E-01
DAV:   6    -0.192453431427E+03    0.19317E-02   -0.59115E-03 11320   0.514E-01    0.140E-01
DAV:   7    -0.192452918589E+03    0.51284E-03   -0.11209E-03 11000   0.141E-01    0.449E-02
DAV:   8    -0.192452903846E+03    0.14742E-04   -0.16833E-04  8280   0.601E-02
  89 F= -.19245290E+03 E0= -.19236381E+03  d E =0.280503E-01
       N       E                     dE             d eps       ncg     rms          rms(c)
DAV:   1    -0.192481008569E+03   -0.28090E-01   -0.59915E+00  8160   0.529E+00    0.657E-01
DAV:   2    -0.192504648731E+03   -0.23640E-01   -0.18183E-01 11000   0.193E+00    0.122E+00
DAV:   3    -0.192487818095E+03    0.16831E-01   -0.39408E-02 11920   0.174E+00    0.494E-01
DAV:   4    -0.192485278420E+03    0.25397E-02   -0.69371E-03 11880   0.621E-01    0.329E-01
DAV:   5    -0.192485056999E+03    0.22142E-03   -0.53786E-03 12440   0.645E-01    0.325E-01
DAV:   6    -0.192483865559E+03    0.11914E-02   -0.28248E-03 11120   0.415E-01    0.101E-01
DAV:   7    -0.192483626604E+03    0.23895E-03   -0.49635E-04 10480   0.105E-01    0.289E-02
DAV:   8    -0.192483629743E+03   -0.31386E-05   -0.77887E-05  7520   0.585E-02
  90 F= -.19248363E+03 E0= -.19239563E+03  d E =-.307259E-01
       N       E                     dE             d eps       ncg     rms          rms(c)
DAV:   1    -0.192488277468E+03   -0.46509E-02   -0.31050E+00  8160   0.376E+00    0.444E-01
DAV:   2    -0.192501793259E+03   -0.13516E-01   -0.12085E-01 11360   0.139E+00    0.774E-01
DAV:   3    -0.192496047626E+03    0.57456E-02   -0.20061E-02 12200   0.121E+00    0.396E-01
DAV:   4    -0.192494112806E+03    0.19348E-02   -0.32646E-03 11520   0.446E-01    0.172E-01
DAV:   5    -0.192494391113E+03   -0.27831E-03   -0.21919E-03 12760   0.380E-01    0.239E-01
DAV:   6    -0.192493801216E+03    0.58990E-03   -0.16226E-03 11280   0.331E-01    0.949E-02
DAV:   7    -0.192493629621E+03    0.17160E-03   -0.37474E-04  9240   0.108E-01    0.228E-02
DAV:   8    -0.192493622742E+03    0.68787E-05   -0.63032E-05  7680   0.300E-02
  91 F= -.19249362E+03 E0= -.19240704E+03  d E =-.999300E-02
       N       E                     dE             d eps       ncg     rms          rms(c)
DAV:   1    -0.192494011939E+03   -0.38232E-03   -0.11061E-01  8160   0.734E-01    0.114E-01
DAV:   2    -0.192494680057E+03   -0.66812E-03   -0.44321E-03 12120   0.368E-01    0.244E-01
DAV:   3    -0.192494018890E+03    0.66117E-03   -0.13772E-03 10440   0.333E-01    0.830E-02
DAV:   4    -0.192493929139E+03    0.89751E-04   -0.19340E-04  6720   0.898E-02
  92 F= -.19249393E+03 E0= -.19240769E+03  d E =-.306397E-03
       N       E                     dE             d eps       ncg     rms          rms(c)
DAV:   1    -0.192494962094E+03   -0.94320E-03   -0.10606E+00  8160   0.217E+00    0.217E-01
DAV:   2    -0.192498753200E+03   -0.37911E-02   -0.43979E-02 12280   0.662E-01    0.235E-01
DAV:   3    -0.192498861437E+03   -0.10824E-03   -0.36908E-03 12000   0.506E-01    0.258E-01
DAV:   4    -0.192498007452E+03    0.85398E-03   -0.12544E-03 10280   0.313E-01    0.824E-02
DAV:   5    -0.192498160797E+03   -0.15335E-03   -0.59423E-04  9880   0.185E-01    0.136E-01
DAV:   6    -0.192497990385E+03    0.17041E-03   -0.51428E-04  9080   0.191E-01    0.557E-02
DAV:   7    -0.192497939513E+03    0.50872E-04   -0.10320E-04  6280   0.638E-02
  93 F= -.19249794E+03 E0= -.19241333E+03  d E =-.401037E-02
       N       E                     dE             d eps       ncg     rms          rms(c)
DAV:   1    -0.192496223944E+03    0.17664E-02   -0.18561E-01  8160   0.911E-01    0.108E-01
DAV:   2    -0.192497141134E+03   -0.91719E-03   -0.91166E-03 11680   0.384E-01    0.187E-01
DAV:   3    -0.192496796603E+03    0.34453E-03   -0.10887E-03 10800   0.280E-01    0.842E-02
DAV:   4    -0.192496684037E+03    0.11257E-03   -0.19474E-04  6360   0.112E-01    0.510E-02
DAV:   5    -0.192496703876E+03   -0.19839E-04   -0.17496E-04  7080   0.110E-01
  94 F= -.19249670E+03 E0= -.19241131E+03  d E =0.123564E-02
       N       E                     dE             d eps       ncg     rms          rms(c)
DAV:   1    -0.192496548249E+03    0.13579E-03   -0.29123E-02  8240   0.386E-01    0.946E-02
DAV:   2    -0.192496634273E+03   -0.86024E-04   -0.20965E-03 11480   0.228E-01    0.147E-01
DAV:   3    -0.192496413877E+03    0.22040E-03   -0.67728E-04  9480   0.225E-01    0.693E-02
DAV:   4    -0.192496331031E+03    0.82846E-04   -0.18568E-04  6280   0.973E-02
  95 F= -.19249633E+03 E0= -.19241076E+03  d E =0.372845E-03
       N       E                     dE             d eps       ncg     rms          rms(c)
DAV:   1    -0.192497167727E+03   -0.75385E-03   -0.62334E-02  8160   0.532E-01    0.551E-02
DAV:   2    -0.192497450089E+03   -0.28236E-03   -0.25771E-03 12280   0.177E-01    0.950E-02
DAV:   3    -0.192497361451E+03    0.88638E-04   -0.30761E-04  8840   0.151E-01
  96 F= -.19249736E+03 E0= -.19241222E+03  d E =-.103042E-02
       N       E                     dE             d eps       ncg     rms          rms(c)
DAV:   1    -0.192497605644E+03   -0.15555E-03   -0.63536E-03  8160   0.185E-01    0.397E-02
DAV:   2    -0.192497729537E+03   -0.12389E-03   -0.45347E-04 10120   0.157E-01    0.106E-01
DAV:   3    -0.192497592106E+03    0.13743E-03   -0.16086E-04  7080   0.126E-01    0.200E-02
DAV:   4    -0.192497599147E+03   -0.70416E-05   -0.30924E-05  5880   0.408E-02
  97 F= -.19249760E+03 E0= -.19241263E+03  d E =-.237696E-03
