<?xml version="1.0" encoding="ISO-8859-1"?>
<modeling>
 <generator>
  <i name="program" type="string">vasp </i>
  <i name="version" type="string">5.4.1  </i>
  <i name="subversion" type="string">05Feb16 (build Jul 05 2020 17:13:04) complex                          parallel </i>
  <i name="platform" type="string">IFC91_ompi </i>
  <i name="date" type="string">2024 04 26 </i>
  <i name="time" type="string">02:58:30 </i>
 </generator>
 <incar>
  <i type="int" name="ISTART">     0</i>
  <i type="string" name="PREC">normal</i>
  <i type="string" name="ALGO"> Normal</i>
  <i type="int" name="ISPIN">     1</i>
  <i type="int" name="ICHARG">     2</i>
  <i type="int" name="IBRION">     1</i>
  <i type="int" name="NSW">   100</i>
  <i type="int" name="ISIF">     3</i>
  <i type="int" name="ISYM">     0</i>
  <i name="SYMPREC">      0.00000001</i>
  <i name="POTIM">      0.50000000</i>
  <i type="logical" name="LREAL"> F  </i>
  <i type="logical" name="LPLANE"> F  </i>
  <i type="int" name="ISMEAR">     0</i>
  <i type="logical" name="LWAVE"> F  </i>
  <i type="logical" name="LCHARG"> F  </i>
  <v type="int" name="KPOINT_BSE">    -1     0     0     0</v>
 </incar>
 <kpoints>
  <generation param="Gamma">
   <v type="int" name="divisions">       8        8        1 </v>
   <v name="usershift">      0.00000000       0.00000000       0.00000000 </v>
   <v name="genvec1">      0.12500000       0.00000000       0.00000000 </v>
   <v name="genvec2">     -0.00000000       0.12500000       0.00000000 </v>
   <v name="genvec3">      0.00000000       0.00000000       1.00000000 </v>
   <v name="shift">      0.00000000       0.00000000       0.00000000 </v>
  </generation>
  <varray name="kpointlist" >
   <v>       0.00000000       0.00000000       0.00000000 </v>
   <v>       0.12500000       0.00000000       0.00000000 </v>
   <v>       0.25000000       0.00000000       0.00000000 </v>
   <v>       0.37500000       0.00000000       0.00000000 </v>
   <v>       0.50000000       0.00000000       0.00000000 </v>
   <v>       0.00000000       0.12500000       0.00000000 </v>
   <v>       0.12500000       0.12500000       0.00000000 </v>
   <v>       0.25000000       0.12500000       0.00000000 </v>
   <v>       0.37500000       0.12500000       0.00000000 </v>
   <v>       0.50000000       0.12500000       0.00000000 </v>
   <v>      -0.37500000       0.12500000       0.00000000 </v>
   <v>      -0.25000000       0.12500000       0.00000000 </v>
   <v>      -0.12500000       0.12500000       0.00000000 </v>
   <v>       0.00000000       0.25000000       0.00000000 </v>
   <v>       0.12500000       0.25000000       0.00000000 </v>
   <v>       0.25000000       0.25000000       0.00000000 </v>
   <v>       0.37500000       0.25000000       0.00000000 </v>
   <v>       0.50000000       0.25000000       0.00000000 </v>
   <v>      -0.37500000       0.25000000       0.00000000 </v>
   <v>      -0.25000000       0.25000000       0.00000000 </v>
   <v>      -0.12500000       0.25000000       0.00000000 </v>
   <v>      -0.00000000       0.37500000       0.00000000 </v>
   <v>       0.12500000       0.37500000       0.00000000 </v>
   <v>       0.25000000       0.37500000       0.00000000 </v>
   <v>       0.37500000       0.37500000       0.00000000 </v>
   <v>       0.50000000       0.37500000       0.00000000 </v>
   <v>      -0.37500000       0.37500000       0.00000000 </v>
   <v>      -0.25000000       0.37500000       0.00000000 </v>
   <v>      -0.12500000       0.37500000       0.00000000 </v>
   <v>       0.00000000       0.50000000       0.00000000 </v>
   <v>       0.12500000       0.50000000       0.00000000 </v>
   <v>       0.25000000       0.50000000       0.00000000 </v>
   <v>       0.37500000       0.50000000       0.00000000 </v>
   <v>       0.50000000       0.50000000       0.00000000 </v>
  </varray>
  <varray name="weights" >
   <v>       0.01562500 </v>
   <v>       0.03125000 </v>
   <v>       0.03125000 </v>
   <v>       0.03125000 </v>
   <v>       0.01562500 </v>
   <v>       0.03125000 </v>
   <v>       0.03125000 </v>
   <v>       0.03125000 </v>
   <v>       0.03125000 </v>
   <v>       0.03125000 </v>
   <v>       0.03125000 </v>
   <v>       0.03125000 </v>
   <v>       0.03125000 </v>
   <v>       0.03125000 </v>
   <v>       0.03125000 </v>
   <v>       0.03125000 </v>
   <v>       0.03125000 </v>
   <v>       0.03125000 </v>
   <v>       0.03125000 </v>
   <v>       0.03125000 </v>
   <v>       0.03125000 </v>
   <v>       0.03125000 </v>
   <v>       0.03125000 </v>
   <v>       0.03125000 </v>
   <v>       0.03125000 </v>
   <v>       0.03125000 </v>
   <v>       0.03125000 </v>
   <v>       0.03125000 </v>
   <v>       0.03125000 </v>
   <v>       0.01562500 </v>
   <v>       0.03125000 </v>
   <v>       0.03125000 </v>
   <v>       0.03125000 </v>
   <v>       0.01562500 </v>
  </varray>
 </kpoints>
 <parameters>
  <separator name="general" >
   <i type="string" name="SYSTEM">unknown system</i>
   <i type="logical" name="LCOMPAT"> F  </i>
  </separator>
  <separator name="electronic" >
   <i type="string" name="PREC">normal</i>
   <i name="ENMAX">    280.00000000</i>
   <i name="ENAUG">    373.43800000</i>
   <i name="EDIFF">      0.00010000</i>
   <i type="int" name="IALGO">    38</i>
   <i type="int" name="IWAVPR">    11</i>
   <i type="int" name="NBANDS">   120</i>
   <i name="NELECT">    159.00000000</i>
   <i type="int" name="TURBO">     0</i>
   <i type="int" name="IRESTART">     0</i>
   <i type="int" name="NREBOOT">     0</i>
   <i type="int" name="NMIN">     0</i>
   <i name="EREF">      0.00000000</i>
   <separator name="electronic smearing" >
    <i type="int" name="ISMEAR">     0</i>
    <i name="SIGMA">      0.20000000</i>
    <i name="KSPACING">      0.50000000</i>
    <i type="logical" name="KGAMMA"> T  </i>
   </separator>
   <separator name="electronic projectors" >
    <i type="logical" name="LREAL"> F  </i>
    <v name="ROPT">      0.00000000      0.00000000      0.00000000      0.00000000</v>
    <i type="int" name="LMAXPAW">  -100</i>
    <i type="int" name="LMAXMIX">     2</i>
    <i type="logical" name="NLSPLINE"> F  </i>
   </separator>
   <separator name="electronic startup" >
    <i type="int" name="ISTART">     0</i>
    <i type="int" name="ICHARG">     2</i>
    <i type="int" name="INIWAV">     1</i>
   </separator>
   <separator name="electronic spin" >
    <i type="int" name="ISPIN">     1</i>
    <i type="logical" name="LNONCOLLINEAR"> F  </i>
    <v name="MAGMOM">      1.00000000      1.00000000      1.00000000      1.00000000      1.00000000      1.00000000      1.00000000      1.00000000      1.00000000      1.00000000      1.00000000      1.00000000      1.00000000      1.00000000      1.00000000      1.00000000      1.00000000      1.00000000      1.00000000      1.00000000
      1.00000000      1.00000000      1.00000000      1.00000000      1.00000000      1.00000000      1.00000000</v>
    <i name="NUPDOWN">     -1.00000000</i>
    <i type="logical" name="LSORBIT"> F  </i>
    <v name="SAXIS">      0.00000000      0.00000000      1.00000000</v>
    <i type="logical" name="LSPIRAL"> F  </i>
    <v name="QSPIRAL">      0.00000000      0.00000000      0.00000000</v>
    <i type="logical" name="LZEROZ"> F  </i>
   </separator>
   <separator name="electronic exchange-correlation" >
    <i type="logical" name="LASPH"> F  </i>
    <i type="logical" name="LMETAGGA"> F  </i>
   </separator>
   <separator name="electronic convergence" >
    <i type="int" name="NELM">    60</i>
    <i type="int" name="NELMDL">    -5</i>
    <i type="int" name="NELMIN">     2</i>
    <i name="ENINI">    280.00000000</i>
    <separator name="electronic convergence detail" >
     <i type="logical" name="LDIAG"> T  </i>
     <i type="logical" name="LSUBROT"> F  </i>
     <i name="WEIMIN">      0.00100000</i>
     <i name="EBREAK">      0.00000021</i>
     <i name="DEPER">      0.30000000</i>
     <i type="int" name="NRMM">     4</i>
     <i name="TIME">      0.40000000</i>
    </separator>
   </separator>
   <separator name="electronic mixer" >
    <i name="AMIX">      0.40000000</i>
    <i name="BMIX">      1.00000000</i>
    <i name="AMIN">      0.10000000</i>
    <i name="AMIX_MAG">      1.60000000</i>
    <i name="BMIX_MAG">      1.00000000</i>
    <separator name="electronic mixer details" >
     <i type="int" name="IMIX">     4</i>
     <i type="logical" name="MIXFIRST"> F  </i>
     <i type="int" name="MAXMIX">   -45</i>
     <i name="WC">    100.00000000</i>
     <i type="int" name="INIMIX">     1</i>
     <i type="int" name="MIXPRE">     1</i>
     <i type="int" name="MREMOVE">     5</i>
    </separator>
   </separator>
   <separator name="electronic dipolcorrection" >
    <i type="logical" name="LDIPOL"> F  </i>
    <i type="logical" name="LMONO"> F  </i>
    <i type="int" name="IDIPOL">     0</i>
    <i name="EPSILON">      1.00000000</i>
    <v name="DIPOL">   -100.00000000   -100.00000000   -100.00000000</v>
    <i name="EFIELD">      0.00000000</i>
   </separator>
  </separator>
  <separator name="grids" >
   <i type="int" name="NGX">    42</i>
   <i type="int" name="NGY">    42</i>
   <i type="int" name="NGZ">   126</i>
   <i type="int" name="NGXF">    84</i>
   <i type="int" name="NGYF">    84</i>
   <i type="int" name="NGZF">   252</i>
   <i type="logical" name="ADDGRID"> F  </i>
  </separator>
  <separator name="ionic" >
   <i type="int" name="NSW">   100</i>
   <i type="int" name="IBRION">     1</i>
   <i type="int" name="ISIF">     3</i>
   <i name="PSTRESS">      0.00000000</i>
   <i name="EDIFFG">      0.00100000</i>
   <i type="int" name="NFREE">     0</i>
   <i name="POTIM">      0.50000000</i>
   <i name="SMASS">     -3.00000000</i>
   <i name="SCALEE">      1.00000000</i>
  </separator>
  <separator name="ionic md" >
   <i name="TEBEG">      0.00010000</i>
   <i name="TEEND">      0.00010000</i>
   <i type="int" name="NBLOCK">     1</i>
   <i type="int" name="KBLOCK">   100</i>
   <i type="int" name="NPACO">   256</i>
   <i name="APACO">     16.00000000</i>
  </separator>
  <separator name="symmetry" >
   <i type="int" name="ISYM">     0</i>
   <i name="SYMPREC">      0.00000001</i>
  </separator>
  <separator name="dos" >
   <i type="logical" name="LORBIT"> F  </i>
   <v name="RWIGS">     -1.00000000     -1.00000000     -1.00000000     -1.00000000</v>
   <i type="int" name="NEDOS">   301</i>
   <i name="EMIN">     10.00000000</i>
   <i name="EMAX">    -10.00000000</i>
   <i name="EFERMI">      0.00000000</i>
  </separator>
  <separator name="writing" >
   <i type="int" name="NWRITE">     2</i>
   <i type="logical" name="LWAVE"> F  </i>
   <i type="logical" name="LCHARG"> F  </i>
   <i type="logical" name="LPARD"> F  </i>
   <i type="logical" name="LVTOT"> F  </i>
   <i type="logical" name="LVHAR"> F  </i>
   <i type="logical" name="LELF"> F  </i>
   <i type="logical" name="LOPTICS"> F  </i>
   <v name="STM">      0.00000000      0.00000000      0.00000000      0.00000000      0.00000000      0.00000000      0.00000000</v>
  </separator>
  <separator name="performance" >
   <i type="int" name="NPAR">    40</i>
   <i type="int" name="NSIM">     4</i>
   <i type="int" name="NBLK">    -1</i>
   <i type="logical" name="LPLANE"> F  </i>
   <i type="logical" name="LSCALAPACK"> T  </i>
   <i type="logical" name="LSCAAWARE"> F  </i>
   <i type="logical" name="LSCALU"> F  </i>
   <i type="logical" name="LASYNC"> F  </i>
   <i type="logical" name="LORBITALREAL"> F  </i>
  </separator>
  <separator name="miscellaneous" >
   <i type="int" name="IDIOT">     3</i>
   <i type="logical" name="LMUSIC"> F  </i>
   <v name="POMASS">     50.94100000     95.94000000    183.85000000     32.06600000</v>
   <v name="DARWINR">      0.00000000      0.00000000      0.00000000      0.00000000</v>
   <v name="DARWINV">      1.00000000      1.00000000      1.00000000      1.00000000</v>
   <i type="logical" name="LCORR"> T  </i>
  </separator>
  <i type="logical" name="GGA_COMPAT"> T  </i>
  <i type="logical" name="LBERRY"> F  </i>
  <i type="int" name="ICORELEVEL">     0</i>
  <i type="logical" name="LDAU"> F  </i>
  <i type="int" name="I_CONSTRAINED_M">     0</i>
  <separator name="electronic exchange-correlation" >
   <i type="string" name="GGA">--</i>
   <i type="int" name="VOSKOWN">     0</i>
   <i type="logical" name="LHFCALC"> F  </i>
   <i type="string" name="PRECFOCK"></i>
   <i type="logical" name="LSYMGRAD"> F  </i>
   <i type="logical" name="LHFONE"> F  </i>
   <i type="logical" name="LRHFCALC"> F  </i>
   <i type="logical" name="LTHOMAS"> F  </i>
   <i type="logical" name="LMODELHF"> F  </i>
   <i name="ENCUT4O">     -1.00000000</i>
   <i type="int" name="EXXOEP">     0</i>
   <i type="int" name="FOURORBIT">     0</i>
   <i name="AEXX">      0.00000000</i>
   <i name="HFALPHA">      0.00000000</i>
   <i name="MCALPHA">      0.00000000</i>
   <i name="ALDAX">      1.00000000</i>
   <i name="AGGAX">      1.00000000</i>
   <i name="ALDAC">      1.00000000</i>
   <i name="AGGAC">      1.00000000</i>
   <i type="int" name="NKREDX">     1</i>
   <i type="int" name="NKREDY">     1</i>
   <i type="int" name="NKREDZ">     1</i>
   <i type="logical" name="SHIFTRED"> F  </i>
   <i type="logical" name="ODDONLY"> F  </i>
   <i type="logical" name="EVENONLY"> F  </i>
   <i type="int" name="LMAXFOCK">     0</i>
   <i type="int" name="NMAXFOCKAE">     0</i>
   <i type="logical" name="LFOCKAEDFT"> F  </i>
   <i name="HFSCREEN">      0.00000000</i>
   <i name="HFSCREENC">      0.00000000</i>
   <i type="int" name="NBANDSGWLOW">     0</i>
  </separator>
  <separator name="vdW DFT" >
   <i type="logical" name="LUSE_VDW"> F  </i>
   <i name="Zab_VDW">     -0.84910000</i>
   <i name="PARAM1">      0.12340000</i>
   <i name="PARAM2">      1.00000000</i>
   <i name="PARAM3">      0.00000000</i>
  </separator>
  <separator name="model GW" >
   <i type="int" name="MODEL_GW">     0</i>
   <i name="MODEL_EPS0">     58.26239943</i>
   <i name="MODEL_ALPHA">      1.00000000</i>
  </separator>
  <separator name="linear response parameters" >
   <i type="logical" name="LEPSILON"> F  </i>
   <i type="logical" name="LRPA"> F  </i>
   <i type="logical" name="LNABLA"> F  </i>
   <i type="logical" name="LVEL"> F  </i>
   <i type="int" name="KINTER">     0</i>
   <i name="CSHIFT">      0.10000000</i>
   <i name="OMEGAMAX">     -1.00000000</i>
   <i name="DEG_THRESHOLD">      0.00200000</i>
  </separator>
  <separator name="orbital magnetization" >
   <i type="logical" name="NUCIND"> F  </i>
   <v name="MAGPOS">      0.00000000      0.00000000      0.00000000</v>
   <i type="logical" name="LNICSALL"> T  </i>
   <i type="logical" name="ORBITALMAG"> F  </i>
   <i type="logical" name="LMAGBLOCH"> F  </i>
   <i type="logical" name="LCHIMAG"> F  </i>
   <i type="logical" name="LGAUGE"> T  </i>
   <i type="int" name="MAGATOM">     0</i>
   <v name="MAGDIPOL">      0.00000000      0.00000000      0.00000000</v>
   <v name="AVECCONST">      0.00000000      0.00000000      0.00000000</v>
  </separator>
  <separator name="response functions" >
   <i type="logical" name="LADDER"> F  </i>
   <i type="logical" name="LFXC"> F  </i>
   <i type="logical" name="LHARTREE"> T  </i>
   <i type="int" name="IBSE">     0</i>
   <v type="int" name="KPOINT">    -1     0     0     0</v>
   <i type="logical" name="LTCTE"> F  </i>
   <i type="logical" name="LTETE"> F  </i>
   <i type="logical" name="LTRIPLET"> F  </i>
   <i type="logical" name="LFXCEPS"> F  </i>
   <i type="logical" name="LFXHEG"> F  </i>
   <i type="int" name="NATURALO">     0</i>
   <i type="logical" name="L2ORDER"> F  </i>
   <i type="logical" name="LUSEW"> F  </i>
   <i name="ENCUTGW">     -2.00000000</i>
   <i name="ENCUTGWSOFT">     -2.00000000</i>
   <i name="ENCUTLF">     -1.00000000</i>
   <i type="int" name="LMAXMP2">    -1</i>
   <i name="SCISSOR">      0.00000000</i>
   <i type="int" name="NOMEGA">     0</i>
   <i type="int" name="NOMEGAR">     0</i>
   <i type="int" name="NBANDSGW">    -1</i>
   <i type="int" name="NBANDSO">    -1</i>
   <i type="int" name="NBANDSV">    -1</i>
   <i type="int" name="NELM">     1</i>
   <i type="int" name="NELMHF">     1</i>
   <i type="int" name="DIM">     3</i>
   <i type="int" name="ANTIRES">     0</i>
   <i name="OMEGAMAX">    -30.00000000</i>
   <i name="OMEGAMIN">    -30.00000000</i>
   <i name="OMEGATL">   -200.00000000</i>
   <i type="int" name="OMEGAGRID">     0</i>
   <i name="CSHIFT">     -0.10000000</i>
   <i type="logical" name="SELFENERGY"> F  </i>
   <i type="logical" name="LSPECTRAL"> F  </i>
   <i type="logical" name="LSPECTRALGW"> F  </i>
   <i type="logical" name="LSINGLES"> F  </i>
   <i type="logical" name="LFERMIGW"> F  </i>
   <i type="logical" name="ODDONLYGW"> F  </i>
   <i type="logical" name="EVENONLYGW"> F  </i>
   <i type="int" name="NKREDLFX">     1</i>
   <i type="int" name="NKREDLFY">     1</i>
   <i type="int" name="NKREDLFZ">     1</i>
   <i type="int" name="MAXMEM">  1800</i>
   <i type="int" name="TELESCOPE">     0</i>
   <i type="int" name="TAUPAR">     1</i>
   <i type="int" name="OMEGAPAR">    -1</i>
   <i name="LAMBDA">      1.00000000</i>
  </separator>
  <separator name="External order field" >
   <i name="OFIELD_KAPPA">      0.00000000</i>
   <v name="OFIELD_K">      0.00000000      0.00000000      0.00000000</v>
   <i name="OFIELD_Q6_NEAR">      0.00000000</i>
   <i name="OFIELD_Q6_FAR">      0.00000000</i>
   <i name="OFIELD_A">      0.00000000</i>
  </separator>
 </parameters>
 <atominfo>
  <atoms>      27 </atoms>
  <types>       4 </types>
  <array name="atoms" >
   <dimension dim="1">ion</dimension>
   <field type="string">element</field>
   <field type="int">atomtype</field>
   <set>
    <rc><c>V </c><c>   1</c></rc>
    <rc><c>V </c><c>   1</c></rc>
    <rc><c>V </c><c>   1</c></rc>
    <rc><c>Mo</c><c>   2</c></rc>
    <rc><c>Mo</c><c>   2</c></rc>
    <rc><c>Mo</c><c>   2</c></rc>
    <rc><c>W </c><c>   3</c></rc>
    <rc><c>W </c><c>   3</c></rc>
    <rc><c>W </c><c>   3</c></rc>
    <rc><c>S </c><c>   4</c></rc>
    <rc><c>S </c><c>   4</c></rc>
    <rc><c>S </c><c>   4</c></rc>
    <rc><c>S </c><c>   4</c></rc>
    <rc><c>S </c><c>   4</c></rc>
    <rc><c>S </c><c>   4</c></rc>
    <rc><c>S </c><c>   4</c></rc>
    <rc><c>S </c><c>   4</c></rc>
    <rc><c>S </c><c>   4</c></rc>
    <rc><c>S </c><c>   4</c></rc>
    <rc><c>S </c><c>   4</c></rc>
    <rc><c>S </c><c>   4</c></rc>
    <rc><c>S </c><c>   4</c></rc>
    <rc><c>S </c><c>   4</c></rc>
    <rc><c>S </c><c>   4</c></rc>
    <rc><c>S </c><c>   4</c></rc>
    <rc><c>S </c><c>   4</c></rc>
    <rc><c>S </c><c>   4</c></rc>
   </set>
  </array>
  <array name="atomtypes" >
   <dimension dim="1">type</dimension>
   <field type="int">atomspertype</field>
   <field type="string">element</field>
   <field>mass</field>
   <field>valence</field>
   <field type="string">pseudopotential</field>
   <set>
    <rc><c>   3</c><c>V </c><c>     50.94100000</c><c>      5.00000000</c><c> PAW_PBE V 08Apr2002                    </c></rc>
    <rc><c>   3</c><c>Mo</c><c>     95.94000000</c><c>      6.00000000</c><c> PAW_PBE Mo 08Apr2002                   </c></rc>
    <rc><c>   3</c><c>W </c><c>    183.85000000</c><c>      6.00000000</c><c> PAW_PBE W 08Apr2002                    </c></rc>
    <rc><c>  18</c><c>S </c><c>     32.06600000</c><c>      6.00000000</c><c>  PAW_PBE S 17Jan2003                   </c></rc>
   </set>
  </array>
 </atominfo>
 <structure name="initialpos" >
  <crystal>
   <varray name="basis" >
    <v>       8.66999996       5.03999989       0.00000000 </v>
    <v>      -8.66999982       5.04000013       0.00000000 </v>
    <v>       0.00000000       0.00000000      30.00000000 </v>
   </varray>
   <i name="volume">   2621.80797419 </i>
   <varray name="rec_basis" >
    <v>       0.05767013       0.09920635       0.00000000 </v>
    <v>      -0.05767013       0.09920635       0.00000000 </v>
    <v>       0.00000000       0.00000000       0.03333333 </v>
   </varray>
  </crystal>
  <varray name="positions" >
   <v>       0.66666669       0.66666669       0.00000000 </v>
   <v>       0.66666669       0.33333334       0.00000000 </v>
   <v>       0.66666669       0.00000000       0.00000000 </v>
   <v>       1.00000000       0.33333334       0.00000000 </v>
   <v>       0.33333334       0.00000000       0.00000000 </v>
   <v>       0.33333334       0.33333334       0.00000000 </v>
   <v>       0.00000000       0.00000000       0.00000000 </v>
   <v>       0.00000000       0.66666669       0.00000000 </v>
   <v>       0.33333334       0.66666669       0.00000000 </v>
   <v>       0.11068511       0.22244981       0.95539999 </v>
   <v>       0.22244981       0.11068511       0.04460000 </v>
   <v>       0.11068511       0.55578315       0.95539999 </v>
   <v>       0.22244981       0.44401845       0.04460000 </v>
   <v>       0.11068511       0.88911647       0.95539999 </v>
   <v>       0.22244981       0.77735180       0.04460000 </v>
   <v>       0.44401845       0.22244981       0.95539999 </v>
   <v>       0.55578315       0.11068511       0.04460000 </v>
   <v>       0.44401845       0.55578315       0.95539999 </v>
   <v>       0.55578315       0.44401845       0.04460000 </v>
   <v>       0.44401845       0.88911647       0.95539999 </v>
   <v>       0.55578315       0.77735180       0.04460000 </v>
   <v>       0.77735180       0.22244981       0.95539999 </v>
   <v>       0.88911647       0.11068511       0.04460000 </v>
   <v>       0.77735180       0.55578315       0.95539999 </v>
   <v>       0.88911647       0.44401845       0.04460000 </v>
   <v>       0.77735180       0.88911647       0.95539999 </v>
   <v>       0.88911647       0.77735180       0.04460000 </v>
  </varray>
 </structure>
 <calculation>
  <scstep>
   <time name="dav">   22.83   22.89</time>
   <time name="total">   22.87   22.94</time>
   <energy>
    <i name="alphaZ">     81.65567618 </i>
    <i name="ewald">  41891.19377233 </i>
    <i name="hartreedc"> -47723.83794990 </i>
    <i name="XCdc">   -242.92495579 </i>
    <i name="pawpsdc">   3467.42045192 </i>
    <i name="pawaedc">  -2871.19716117 </i>
    <i name="eentropy">     -0.52967098 </i>
    <i name="bandstr">   -239.64066775 </i>
    <i name="atom">   6761.44252427 </i>
    <i name="e_fr_energy">   1123.58201911 </i>
    <i name="e_wo_entrp">   1124.11169009 </i>
    <i name="e_0_energy">   1123.84685460 </i>
   </energy>
  </scstep>
  <scstep>
   <time name="dav">   29.07   29.14</time>
   <time name="total">   29.07   29.15</time>
   <energy>
    <i name="e_fr_energy">     -2.22360225 </i>
    <i name="e_wo_entrp">     -2.04109131 </i>
    <i name="e_0_energy">     -2.13234678 </i>
   </energy>
  </scstep>
  <scstep>
   <time name="dav">   28.89   28.96</time>
   <time name="total">   28.90   29.18</time>
   <energy>
    <i name="e_fr_energy">   -199.75189276 </i>
    <i name="e_wo_entrp">   -199.50024186 </i>
    <i name="e_0_energy">   -199.62606731 </i>
   </energy>
  </scstep>
  <scstep>
   <time name="dav">   31.10   31.17</time>
   <time name="total">   31.10   31.18</time>
   <energy>
    <i name="e_fr_energy">   -209.05096255 </i>
    <i name="e_wo_entrp">   -208.78860552 </i>
    <i name="e_0_energy">   -208.91978403 </i>
   </energy>
  </scstep>
  <scstep>
   <time name="dav">   30.01   30.08</time>
   <time name="total">   30.57   30.65</time>
   <energy>
    <i name="e_fr_energy">   -209.40198612 </i>
    <i name="e_wo_entrp">   -209.14303030 </i>
    <i name="e_0_energy">   -209.27250821 </i>
   </energy>
  </scstep>
  <scstep>
   <time name="dav">   32.13   32.21</time>
   <time name="total">   32.72   32.81</time>
   <energy>
    <i name="e_fr_energy">   -241.49724468 </i>
    <i name="e_wo_entrp">   -241.21637593 </i>
    <i name="e_0_energy">   -241.35681030 </i>
   </energy>
  </scstep>
  <scstep>
   <time name="dav">   33.91   33.99</time>
   <time name="total">   34.50   34.59</time>
   <energy>
    <i name="e_fr_energy">   -196.12661493 </i>
    <i name="e_wo_entrp">   -195.80073293 </i>
    <i name="e_0_energy">   -195.96367393 </i>
   </energy>
  </scstep>
  <scstep>
   <time name="dav">   31.34   31.41</time>
   <time name="total">   31.94   32.03</time>
   <energy>
    <i name="e_fr_energy">   -189.33852390 </i>
    <i name="e_wo_entrp">   -189.00651004 </i>
    <i name="e_0_energy">   -189.17251697 </i>
   </energy>
  </scstep>
  <scstep>
   <time name="dav">   33.86   33.94</time>
   <time name="total">   34.47   34.56</time>
   <energy>
    <i name="e_fr_energy">   -188.07295168 </i>
    <i name="e_wo_entrp">   -187.73950447 </i>
    <i name="e_0_energy">   -187.90622807 </i>
   </energy>
  </scstep>
  <scstep>
   <time name="dav">   34.45   34.53</time>
   <time name="total">   35.06   35.16</time>
   <energy>
    <i name="e_fr_energy">   -186.95333533 </i>
    <i name="e_wo_entrp">   -186.59820812 </i>
    <i name="e_0_energy">   -186.77577173 </i>
   </energy>
  </scstep>
  <scstep>
   <time name="dav">   34.65   34.74</time>
   <time name="total">   35.27   35.36</time>
   <energy>
    <i name="e_fr_energy">   -187.07488312 </i>
    <i name="e_wo_entrp">   -186.73691567 </i>
    <i name="e_0_energy">   -186.90589939 </i>
   </energy>
  </scstep>
  <scstep>
   <time name="dav">   33.06   33.14</time>
   <time name="total">   33.68   33.77</time>
   <energy>
    <i name="e_fr_energy">   -186.95411574 </i>
    <i name="e_wo_entrp">   -186.61092317 </i>
    <i name="e_0_energy">   -186.78251946 </i>
   </energy>
  </scstep>
  <scstep>
   <time name="dav">   32.79   32.87</time>
   <time name="total">   33.41   33.50</time>
   <energy>
    <i name="e_fr_energy">   -186.87700576 </i>
    <i name="e_wo_entrp">   -186.53374586 </i>
    <i name="e_0_energy">   -186.70537581 </i>
   </energy>
  </scstep>
  <scstep>
   <time name="dav">   31.64   31.72</time>
   <time name="total">   32.26   32.34</time>
   <energy>
    <i name="e_fr_energy">   -186.85640837 </i>
    <i name="e_wo_entrp">   -186.50847599 </i>
    <i name="e_0_energy">   -186.68244218 </i>
   </energy>
  </scstep>
  <scstep>
   <time name="dav">   32.15   32.23</time>
   <time name="total">   32.76   32.85</time>
   <energy>
    <i name="e_fr_energy">   -186.85308628 </i>
    <i name="e_wo_entrp">   -186.50543230 </i>
    <i name="e_0_energy">   -186.67925929 </i>
   </energy>
  </scstep>
  <scstep>
   <time name="dav">   33.38   33.46</time>
   <time name="total">   33.99   34.08</time>
   <energy>
    <i name="e_fr_energy">   -186.84859642 </i>
    <i name="e_wo_entrp">   -186.50134249 </i>
    <i name="e_0_energy">   -186.67496946 </i>
   </energy>
  </scstep>
  <scstep>
   <time name="dav">   32.62   32.70</time>
   <time name="total">   33.24   33.33</time>
   <energy>
    <i name="e_fr_energy">   -186.84744703 </i>
    <i name="e_wo_entrp">   -186.50142742 </i>
    <i name="e_0_energy">   -186.67443723 </i>
   </energy>
  </scstep>
  <scstep>
   <time name="dav">   32.22   32.30</time>
   <time name="total">   32.84   32.93</time>
   <energy>
    <i name="e_fr_energy">   -186.84684265 </i>
    <i name="e_wo_entrp">   -186.50024791 </i>
    <i name="e_0_energy">   -186.67354528 </i>
   </energy>
  </scstep>
  <scstep>
   <time name="dav">   24.17   24.23</time>
   <time name="total">   24.79   24.86</time>
   <energy>
    <i name="e_fr_energy">   -186.84702013 </i>
    <i name="e_wo_entrp">   -186.50051252 </i>
    <i name="e_0_energy">   -186.67376633 </i>
   </energy>
  </scstep>
  <scstep>
   <time name="dav">   25.18   25.24</time>
   <time name="total">   25.79   25.86</time>
   <energy>
    <i name="e_fr_energy">   -186.84771436 </i>
    <i name="e_wo_entrp">   -186.50154329 </i>
    <i name="e_0_energy">   -186.67462883 </i>
   </energy>
  </scstep>
  <scstep>
   <time name="dav">   22.77   22.83</time>
   <time name="total">   23.39   23.45</time>
   <energy>
    <i name="e_fr_energy">   -186.84870508 </i>
    <i name="e_wo_entrp">   -186.50253577 </i>
    <i name="e_0_energy">   -186.67562042 </i>
   </energy>
  </scstep>
  <scstep>
   <time name="dav">   19.91   19.96</time>
   <time name="total">   20.53   20.58</time>
   <energy>
    <i name="e_fr_energy">   -186.84948297 </i>
    <i name="e_wo_entrp">   -186.50327323 </i>
    <i name="e_0_energy">   -186.67637810 </i>
   </energy>
  </scstep>
  <scstep>
   <time name="dav">   21.40   21.45</time>
   <time name="total">   22.02   22.08</time>
   <energy>
    <i name="e_fr_energy">   -186.85056361 </i>
    <i name="e_wo_entrp">   -186.50433470 </i>
    <i name="e_0_energy">   -186.67744915 </i>
   </energy>
  </scstep>
  <scstep>
   <time name="dav">   18.96   19.01</time>
   <time name="total">   19.58   19.63</time>
   <energy>
    <i name="e_fr_energy">   -186.85118820 </i>
    <i name="e_wo_entrp">   -186.50496711 </i>
    <i name="e_0_energy">   -186.67807766 </i>
   </energy>
  </scstep>
  <scstep>
   <time name="dav">   18.13   18.18</time>
   <time name="total">   18.75   18.81</time>
   <energy>
    <i name="e_fr_energy">   -186.85157094 </i>
    <i name="e_wo_entrp">   -186.50533750 </i>
    <i name="e_0_energy">   -186.67845422 </i>
   </energy>
  </scstep>
  <scstep>
   <time name="dav">   20.19   20.24</time>
   <time name="total">   20.81   20.87</time>
   <energy>
    <i name="e_fr_energy">   -186.85177374 </i>
    <i name="e_wo_entrp">   -186.50554799 </i>
    <i name="e_0_energy">   -186.67866087 </i>
   </energy>
  </scstep>
  <scstep>
   <time name="dav">   20.20   20.25</time>
   <time name="total">   20.24   20.30</time>
   <energy>
    <i name="alphaZ">     81.65567618 </i>
    <i name="ewald">  41891.19377233 </i>
    <i name="hartreedc"> -47833.70643174 </i>
    <i name="XCdc">   -231.60277210 </i>
    <i name="pawpsdc">   4192.07434537 </i>
    <i name="pawaedc">  -3610.08014069 </i>
    <i name="eentropy">     -0.34622472 </i>
    <i name="bandstr">  -1437.48260678 </i>
    <i name="atom">   6761.44252427 </i>
    <i name="e_fr_energy">   -186.85185788 </i>
    <i name="e_wo_entrp">   -186.50563316 </i>
    <i name="e_0_energy">   -186.67874552 </i>
   </energy>
  </scstep>
  <structure>
   <crystal>
    <varray name="basis" >
     <v>       8.66999996       5.03999989       0.00000000 </v>
     <v>      -8.66999982       5.04000013       0.00000000 </v>
     <v>       0.00000000       0.00000000      30.00000000 </v>
    </varray>
    <i name="volume">   2621.80797419 </i>
    <varray name="rec_basis" >
     <v>       0.05767013       0.09920635       0.00000000 </v>
     <v>      -0.05767013       0.09920635       0.00000000 </v>
     <v>       0.00000000       0.00000000       0.03333333 </v>
    </varray>
   </crystal>
   <varray name="positions" >
    <v>       0.66666669       0.66666669       0.00000000 </v>
    <v>       0.66666669       0.33333334       0.00000000 </v>
    <v>       0.66666669       0.00000000       0.00000000 </v>
    <v>       1.00000000       0.33333334       0.00000000 </v>
    <v>       0.33333334       0.00000000       0.00000000 </v>
    <v>       0.33333334       0.33333334       0.00000000 </v>
    <v>       0.00000000       0.00000000       0.00000000 </v>
    <v>       0.00000000       0.66666669       0.00000000 </v>
    <v>       0.33333334       0.66666669       0.00000000 </v>
    <v>       0.11068511       0.22244981       0.95539999 </v>
    <v>       0.22244981       0.11068511       0.04460000 </v>
    <v>       0.11068511       0.55578315       0.95539999 </v>
    <v>       0.22244981       0.44401845       0.04460000 </v>
    <v>       0.11068511       0.88911647       0.95539999 </v>
    <v>       0.22244981       0.77735180       0.04460000 </v>
    <v>       0.44401845       0.22244981       0.95539999 </v>
    <v>       0.55578315       0.11068511       0.04460000 </v>
    <v>       0.44401845       0.55578315       0.95539999 </v>
    <v>       0.55578315       0.44401845       0.04460000 </v>
    <v>       0.44401845       0.88911647       0.95539999 </v>
    <v>       0.55578315       0.77735180       0.04460000 </v>
    <v>       0.77735180       0.22244981       0.95539999 </v>
    <v>       0.88911647       0.11068511       0.04460000 </v>
    <v>       0.77735180       0.55578315       0.95539999 </v>
    <v>       0.88911647       0.44401845       0.04460000 </v>
    <v>       0.77735180       0.88911647       0.95539999 </v>
    <v>       0.88911647       0.77735180       0.04460000 </v>
   </varray>
  </structure>
  <varray name="forces" >
   <v>       0.00855026      -0.23569698       0.00990854 </v>
   <v>       0.00155865      -0.24518289       0.01539102 </v>
   <v>      -0.22320978       0.13531008      -0.02798049 </v>
   <v>       0.22067561       0.13998011      -0.12269086 </v>
   <v>      -0.25361371       0.14809379       0.09460126 </v>
   <v>       0.04940741      -0.27300363       0.14075100 </v>
   <v>      -0.08354735       0.54879783      -0.15432173 </v>
   <v>       0.25508086       0.03971754      -0.12156044 </v>
   <v>       0.05722553      -0.21428956       0.12309995 </v>
   <v>       0.18681917      -0.19212301      -2.92987183 </v>
   <v>      -0.18379531      -0.11940646       2.94836694 </v>
   <v>       0.02914017       0.09897668      -2.95076976 </v>
   <v>      -0.18711729       0.18875594       2.89735110 </v>
   <v>       0.03102776      -0.17260071      -2.90046920 </v>
   <v>      -0.03766952      -0.09377582       2.92688563 </v>
   <v>       0.52919063       0.70663441      -2.15278557 </v>
   <v>       0.32299357       0.66971904       1.43553424 </v>
   <v>       0.37017686       0.69683415      -2.13911005 </v>
   <v>       0.31946186       0.66437234       1.41034117 </v>
   <v>       0.61119316       0.55077844      -2.10781227 </v>
   <v>       0.23574986       0.51267401       1.41440178 </v>
   <v>      -0.31694623      -0.67337370      -1.41001220 </v>
   <v>      -0.37735441      -0.71379220       2.14925992 </v>
   <v>      -0.24027038      -0.51674083      -1.40839948 </v>
   <v>      -0.62181408      -0.55444206       2.12273714 </v>
   <v>      -0.23277091      -0.52239745      -1.38141578 </v>
   <v>      -0.47014241      -0.57381904       2.11856997 </v>
  </varray>
  <varray name="stress" >
   <v>       7.27975743       0.13249464      -1.60553974 </v>
   <v>       0.13249463       4.48767667       0.00343238 </v>
   <v>      -1.60553973       0.00343246      30.31716626 </v>
  </varray>
  <energy>
   <i name="e_fr_energy">   -186.85185788 </i>
   <i name="e_wo_entrp">   -186.67874552 </i>
   <i name="e_0_energy">     -0.34622472 </i>
  </energy>
  <time name="totalsc">  818.19  820.59</time>
 </calculation>
 <calculation>
  <scstep>
   <time name="dav">   22.80   22.85</time>
   <time name="total">   23.42   23.48</time>
   <energy>
    <i name="alphaZ">     78.91834906 </i>
    <i name="ewald">  39377.32891845 </i>
    <i name="hartreedc"> -45334.62005672 </i>
    <i name="XCdc">   -239.07208332 </i>
    <i name="pawpsdc">   4192.05280141 </i>
    <i name="pawaedc">  -3610.05907708 </i>
    <i name="eentropy">     -0.28532993 </i>
    <i name="bandstr">  -1413.23799760 </i>
    <i name="atom">   6761.44252427 </i>
    <i name="e_fr_energy">   -187.53195144 </i>
    <i name="e_wo_entrp">   -187.24662151 </i>
    <i name="e_0_energy">   -187.38928647 </i>
   </energy>
  </scstep>
  <scstep>
   <time name="dav">   31.62   31.69</time>
   <time name="total">   32.23   32.32</time>
   <energy>
    <i name="e_fr_energy">   -189.60093070 </i>
    <i name="e_wo_entrp">   -189.26292516 </i>
    <i name="e_0_energy">   -189.43192793 </i>
   </energy>
  </scstep>
  <scstep>
   <time name="dav">   32.00   32.07</time>
   <time name="total">   32.62   32.71</time>
   <energy>
    <i name="e_fr_energy">   -189.33854002 </i>
    <i name="e_wo_entrp">   -189.07121581 </i>
    <i name="e_0_energy">   -189.20487792 </i>
   </energy>
  </scstep>
  <scstep>
   <time name="dav">   32.17   32.25</time>
   <time name="total">   32.79   32.88</time>
   <energy>
    <i name="e_fr_energy">   -188.80352158 </i>
    <i name="e_wo_entrp">   -188.51536256 </i>
    <i name="e_0_energy">   -188.65944207 </i>
   </energy>
  </scstep>
  <scstep>
   <time name="dav">   29.35   29.42</time>
   <time name="total">   29.96   30.04</time>
   <energy>
    <i name="e_fr_energy">   -188.90492128 </i>
    <i name="e_wo_entrp">   -188.61606836 </i>
    <i name="e_0_energy">   -188.76049482 </i>
   </energy>
  </scstep>
  <scstep>
   <time name="dav">   32.54   32.62</time>
   <time name="total">   33.16   33.25</time>
   <energy>
    <i name="e_fr_energy">   -188.77103621 </i>
    <i name="e_wo_entrp">   -188.48246759 </i>
    <i name="e_0_energy">   -188.62675190 </i>
   </energy>
  </scstep>
  <scstep>
   <time name="dav">   30.78   30.85</time>
   <time name="total">   31.40   31.49</time>
   <energy>
    <i name="e_fr_energy">   -188.72992698 </i>
    <i name="e_wo_entrp">   -188.44201660 </i>
    <i name="e_0_energy">   -188.58597179 </i>
   </energy>
  </scstep>
  <scstep>
   <time name="dav">   31.43   31.50</time>
   <time name="total">   32.05   32.14</time>
   <energy>
    <i name="e_fr_energy">   -188.72106287 </i>
    <i name="e_wo_entrp">   -188.43436273 </i>
    <i name="e_0_energy">   -188.57771280 </i>
   </energy>
  </scstep>
  <scstep>
   <time name="dav">   32.41   32.49</time>
   <time name="total">   33.03   33.12</time>
   <energy>
    <i name="e_fr_energy">   -188.69013404 </i>
    <i name="e_wo_entrp">   -188.40434824 </i>
    <i name="e_0_energy">   -188.54724114 </i>
   </energy>
  </scstep>
  <scstep>
   <time name="dav">   28.50   28.57</time>
   <time name="total">   29.12   29.20</time>
   <energy>
    <i name="e_fr_energy">   -188.68753166 </i>
    <i name="e_wo_entrp">   -188.40252803 </i>
    <i name="e_0_energy">   -188.54502984 </i>
   </energy>
  </scstep>
  <scstep>
   <time name="dav">   33.69   33.77</time>
   <time name="total">   34.31   34.41</time>
   <energy>
    <i name="e_fr_energy">   -188.68676543 </i>
    <i name="e_wo_entrp">   -188.40266819 </i>
    <i name="e_0_energy">   -188.54471681 </i>
   </energy>
  </scstep>
  <scstep>
   <time name="dav">   30.84   30.91</time>
   <time name="total">   31.46   31.54</time>
   <energy>
    <i name="e_fr_energy">   -188.68675321 </i>
    <i name="e_wo_entrp">   -188.40286871 </i>
    <i name="e_0_energy">   -188.54481096 </i>
   </energy>
  </scstep>
  <scstep>
   <time name="dav">   23.80   23.86</time>
   <time name="total">   23.84   23.91</time>
   <energy>
    <i name="alphaZ">     78.91834906 </i>
    <i name="ewald">  39377.32891845 </i>
    <i name="hartreedc"> -45345.40863491 </i>
    <i name="XCdc">   -237.98296713 </i>
    <i name="pawpsdc">   3950.48177113 </i>
    <i name="pawaedc">  -3364.98936816 </i>
    <i name="eentropy">     -0.28404947 </i>
    <i name="bandstr">  -1408.19332418 </i>
    <i name="atom">   6761.44252427 </i>
    <i name="e_fr_energy">   -188.68678092 </i>
    <i name="e_wo_entrp">   -188.40273145 </i>
    <i name="e_0_energy">   -188.54475619 </i>
   </energy>
  </scstep>
  <structure>
   <crystal>
    <varray name="basis" >
     <v>       8.85649380       5.10949034       0.00000000 </v>
     <v>      -8.85258870       5.10277312       0.00000000 </v>
     <v>       0.00000000       0.00000000      30.00000000 </v>
    </varray>
    <i name="volume">   2712.74685133 </i>
    <varray name="rec_basis" >
     <v>       0.05643106       0.09789991       0.00000000 </v>
     <v>      -0.05650535       0.09794309       0.00000000 </v>
     <v>       0.00000000       0.00000000       0.03333333 </v>
    </varray>
   </crystal>
   <varray name="positions" >
    <v>       0.66556243       0.66551486       0.00001593 </v>
    <v>       0.66549758       0.33215557       0.00002475 </v>
    <v>       0.66669327       0.00126860      -0.00004500 </v>
    <v>       1.00128390       0.33338933      -0.00019730 </v>
    <v>       0.33333652       0.00141437       0.00015213 </v>
    <v>       0.33216421       0.33188929       0.00022634 </v>
    <v>       0.00239409       0.00285898      -0.00024816 </v>
    <v>       0.00089976       0.66614710      -0.00019548 </v>
    <v>       0.33246697       0.66548189       0.00019796 </v>
    <v>       0.11028537       0.22101055       0.95068850 </v>
    <v>       0.22136698       0.11062498       0.04934123 </v>
    <v>       0.11123988       0.55617578       0.95065489 </v>
    <v>       0.22283260       0.44544243       0.04925920 </v>
    <v>       0.10994537       0.88820408       0.95073578 </v>
    <v>       0.22189620       0.77700779       0.04930669 </v>
    <v>       0.44887268       0.22435945       0.95193812 </v>
    <v>       0.55988703       0.11299175       0.04690846 </v>
    <v>       0.44838338       0.55808829       0.95196011 </v>
    <v>       0.55985162       0.44630933       0.04686795 </v>
    <v>       0.44835490       0.89005204       0.95201044 </v>
    <v>       0.55889269       0.77914955       0.04687448 </v>
    <v>       0.77324725       0.22010885       0.95313257 </v>
    <v>       0.88465041       0.10831878       0.04805620 </v>
    <v>       0.77421022       0.55397851       0.95313516 </v>
    <v>       0.88473293       0.44309489       0.04801355 </v>
    <v>       0.77420401       0.88726389       0.95317855 </v>
    <v>       0.88506217       0.77591352       0.04800685 </v>
   </varray>
  </structure>
  <varray name="forces" >
   <v>      -0.01513198      -0.19657283       0.01645906 </v>
   <v>      -0.01489962      -0.21100143       0.00634098 </v>
   <v>      -0.15429784       0.09654090      -0.08761983 </v>
   <v>       0.28938038       0.34502443       0.04321363 </v>
   <v>      -0.37886083      -0.06439447      -0.05140208 </v>
   <v>      -0.05503662      -0.50350386       0.02638749 </v>
   <v>       0.01683950       0.66085114      -0.01616605 </v>
   <v>       0.37478202       0.19899068       0.07873322 </v>
   <v>      -0.10123692      -0.39122063       0.01954515 </v>
   <v>       0.06382302      -0.09496461      -0.27826441 </v>
   <v>      -0.06651238      -0.10856667       0.26767155 </v>
   <v>      -0.06115693       0.10356361      -0.14033420 </v>
   <v>      -0.04847535       0.10725374       0.17895231 </v>
   <v>      -0.08551433      -0.10432999      -0.03114227 </v>
   <v>       0.07401010      -0.09882369       0.02301799 </v>
   <v>       0.02670391       0.08358483      -0.03402999 </v>
   <v>       0.00354316       0.05613677       0.01593616 </v>
   <v>      -0.10022636       0.04185364       0.08870932 </v>
   <v>       0.01646449       0.03442679      -0.05440222 </v>
   <v>       0.08025553      -0.05296237       0.17127605 </v>
   <v>      -0.05925981      -0.06980012      -0.13073424 </v>
   <v>      -0.01006114      -0.04679977       0.06692398 </v>
   <v>       0.11122076      -0.05358026      -0.08049477 </v>
   <v>       0.06234845       0.06010797       0.12795464 </v>
   <v>      -0.07509303       0.05346303      -0.14650972 </v>
   <v>       0.05353918       0.07766615       0.21601553 </v>
   <v>       0.05285265       0.07705704      -0.29603731 </v>
  </varray>
  <varray name="stress" >
   <v>     -19.95425695      -0.04796734      -0.02543757 </v>
   <v>      -0.04796732     -19.56188849      -0.07766428 </v>
   <v>      -0.02543759      -0.07766439      -1.77133819 </v>
  </varray>
  <energy>
   <i name="e_fr_energy">   -188.68678092 </i>
   <i name="e_wo_entrp">   -188.54475619 </i>
   <i name="e_0_energy">     -0.28404947 </i>
  </energy>
  <time name="totalsc">  442.94  444.12</time>
 </calculation>
 <calculation>
  <scstep>
   <time name="dav">   24.48   24.54</time>
   <time name="total">   25.10   25.16</time>
   <energy>
    <i name="alphaZ">     82.34869991 </i>
    <i name="ewald">  41304.35926582 </i>
    <i name="hartreedc"> -47303.11898274 </i>
    <i name="XCdc">   -233.85183782 </i>
    <i name="pawpsdc">   3949.96471653 </i>
    <i name="pawaedc">  -3364.46682150 </i>
    <i name="eentropy">     -0.23826049 </i>
    <i name="bandstr">  -1387.06071579 </i>
    <i name="atom">   6761.44252427 </i>
    <i name="e_fr_energy">   -190.62141180 </i>
    <i name="e_wo_entrp">   -190.38315131 </i>
    <i name="e_0_energy">   -190.50228155 </i>
   </energy>
  </scstep>
  <scstep>
   <time name="dav">   30.18   30.25</time>
   <time name="total">   30.79   30.87</time>
   <energy>
    <i name="e_fr_energy">   -190.55212148 </i>
    <i name="e_wo_entrp">   -190.31898267 </i>
    <i name="e_0_energy">   -190.43555208 </i>
   </energy>
  </scstep>
  <scstep>
   <time name="dav">   31.65   31.73</time>
   <time name="total">   32.26   32.34</time>
   <energy>
    <i name="e_fr_energy">   -190.11771783 </i>
    <i name="e_wo_entrp">   -189.86463529 </i>
    <i name="e_0_energy">   -189.99117656 </i>
   </energy>
  </scstep>
  <scstep>
   <time name="dav">   32.54   32.61</time>
   <time name="total">   33.15   33.24</time>
   <energy>
    <i name="e_fr_energy">   -189.88970796 </i>
    <i name="e_wo_entrp">   -189.65538015 </i>
    <i name="e_0_energy">   -189.77254406 </i>
   </energy>
  </scstep>
  <scstep>
   <time name="dav">   31.58   31.66</time>
   <time name="total">   32.20   32.28</time>
   <energy>
    <i name="e_fr_energy">   -189.86705096 </i>
    <i name="e_wo_entrp">   -189.61795396 </i>
    <i name="e_0_energy">   -189.74250246 </i>
   </energy>
  </scstep>
  <scstep>
   <time name="dav">   32.29   32.37</time>
   <time name="total">   32.90   32.99</time>
   <energy>
    <i name="e_fr_energy">   -189.79231141 </i>
    <i name="e_wo_entrp">   -189.55354959 </i>
    <i name="e_0_energy">   -189.67293050 </i>
   </energy>
  </scstep>
  <scstep>
   <time name="dav">   30.31   30.38</time>
   <time name="total">   30.93   31.00</time>
   <energy>
    <i name="e_fr_energy">   -189.78744969 </i>
    <i name="e_wo_entrp">   -189.54660675 </i>
    <i name="e_0_energy">   -189.66702822 </i>
   </energy>
  </scstep>
  <scstep>
   <time name="dav">   32.67   32.75</time>
   <time name="total">   33.28   33.37</time>
   <energy>
    <i name="e_fr_energy">   -189.78720363 </i>
    <i name="e_wo_entrp">   -189.54674931 </i>
    <i name="e_0_energy">   -189.66697647 </i>
   </energy>
  </scstep>
  <scstep>
   <time name="dav">   29.77   29.84</time>
   <time name="total">   30.38   30.46</time>
   <energy>
    <i name="e_fr_energy">   -189.78624720 </i>
    <i name="e_wo_entrp">   -189.54563007 </i>
    <i name="e_0_energy">   -189.66593863 </i>
   </energy>
  </scstep>
  <scstep>
   <time name="dav">   27.77   27.84</time>
   <time name="total">   28.38   28.47</time>
   <energy>
    <i name="e_fr_energy">   -189.78668101 </i>
    <i name="e_wo_entrp">   -189.54593970 </i>
    <i name="e_0_energy">   -189.66631035 </i>
   </energy>
  </scstep>
  <scstep>
   <time name="dav">   24.80   24.86</time>
   <time name="total">   25.41   25.48</time>
   <energy>
    <i name="e_fr_energy">   -189.78638208 </i>
    <i name="e_wo_entrp">   -189.54554428 </i>
    <i name="e_0_energy">   -189.66596318 </i>
   </energy>
  </scstep>
  <scstep>
   <time name="dav">   20.32   20.37</time>
   <time name="total">   20.36   20.42</time>
   <energy>
    <i name="alphaZ">     82.34869991 </i>
    <i name="ewald">  41304.35926582 </i>
    <i name="hartreedc"> -47276.40641700 </i>
    <i name="XCdc">   -235.24865727 </i>
    <i name="pawpsdc">   4038.61876085 </i>
    <i name="pawaedc">  -3454.31997072 </i>
    <i name="eentropy">     -0.24081706 </i>
    <i name="bandstr">  -1410.33979121 </i>
    <i name="atom">   6761.44252427 </i>
    <i name="e_fr_energy">   -189.78640239 </i>
    <i name="e_wo_entrp">   -189.54558533 </i>
    <i name="e_0_energy">   -189.66599386 </i>
   </energy>
  </scstep>
  <structure>
   <crystal>
    <varray name="basis" >
     <v>       8.66795484       5.00255231       0.00000000 </v>
     <v>      -8.66465463       4.99688008       0.00000000 </v>
     <v>       0.00000000       0.00000000      30.00000000 </v>
    </varray>
    <i name="volume">   2599.74356799 </i>
    <varray name="rec_basis" >
     <v>       0.05766200       0.09998665       0.00000000 </v>
     <v>      -0.05772745       0.10002473       0.00000000 </v>
     <v>       0.00000000       0.00000000       0.03333333 </v>
    </varray>
   </crystal>
   <varray name="positions" >
    <v>       0.66522098       0.66520230       0.00002525 </v>
    <v>       0.66513236       0.33181877       0.00002834 </v>
    <v>       0.66670591       0.00157736      -0.00009461 </v>
    <v>       1.00213518       0.33368564      -0.00017283 </v>
    <v>       0.33286620       0.00167091       0.00012302 </v>
    <v>       0.33127401       0.33110432       0.00024128 </v>
    <v>       0.00350938       0.00394244      -0.00025732 </v>
    <v>       0.00159003       0.66611843      -0.00015089 </v>
    <v>       0.33171923       0.66492810       0.00020902 </v>
    <v>       0.11018862       0.22079127       0.95053092 </v>
    <v>       0.22112265       0.11050818       0.04949282 </v>
    <v>       0.11135350       0.55640681       0.95057542 </v>
    <v>       0.22296451       0.44566743       0.04936054 </v>
    <v>       0.10968986       0.88811257       0.95071814 </v>
    <v>       0.22180279       0.77677231       0.04931972 </v>
    <v>       0.44903730       0.22447290       0.95191885 </v>
    <v>       0.55998380       0.11308176       0.04691749 </v>
    <v>       0.44835690       0.55825415       0.95201035 </v>
    <v>       0.55992466       0.44635081       0.04683714 </v>
    <v>       0.44834376       0.88988687       0.95210743 </v>
    <v>       0.55871979       0.77909029       0.04680045 </v>
    <v>       0.77315977       0.22004064       0.95317046 </v>
    <v>       0.88466792       0.10812285       0.04801061 </v>
    <v>       0.77436996       0.55401868       0.95320762 </v>
    <v>       0.88474986       0.44325594       0.04793058 </v>
    <v>       0.77438451       0.88734173       0.95330088 </v>
    <v>       0.88524100       0.77599101       0.04783920 </v>
   </varray>
  </structure>
  <varray name="forces" >
   <v>      -0.02589117      -0.18538520       0.01138365 </v>
   <v>      -0.02707273      -0.19663361       0.00218605 </v>
   <v>      -0.12751325       0.07237918      -0.08445870 </v>
   <v>       0.31154596       0.42598763       0.06096502 </v>
   <v>      -0.42095792      -0.14471494      -0.06615824 </v>
   <v>      -0.08905291      -0.58031371      -0.00719920 </v>
   <v>       0.06747766       0.69371485       0.02218119 </v>
   <v>       0.41851790       0.26206686       0.10067864 </v>
   <v>      -0.16159463      -0.45237233      -0.01816061 </v>
   <v>       0.02309312      -0.00553087      -0.86340612 </v>
   <v>      -0.02905311      -0.04275472       0.84983645 </v>
   <v>      -0.01119952       0.04307174      -0.72661704 </v>
   <v>       0.00323461       0.04132400       0.74773086 </v>
   <v>      -0.04998789      -0.04658790      -0.59260229 </v>
   <v>       0.03465206      -0.01926282       0.58918048 </v>
   <v>       0.05170969       0.14840270      -0.52139221 </v>
   <v>       0.03367489       0.10889787       0.46827606 </v>
   <v>       0.01813873       0.08527161      -0.39290699 </v>
   <v>       0.04977988       0.08055733       0.39167030 </v>
   <v>       0.07338429       0.06196227      -0.30186076 </v>
   <v>       0.00861085       0.06249557       0.32683581 </v>
   <v>      -0.04525701      -0.08872098      -0.37484216 </v>
   <v>      -0.00013400      -0.11136603       0.41012619 </v>
   <v>      -0.00303204      -0.06651011      -0.32382867 </v>
   <v>      -0.06551388      -0.08072220       0.34247328 </v>
   <v>      -0.01262448      -0.03956026      -0.22618254 </v>
   <v>      -0.02493510      -0.02569594       0.17609154 </v>
  </varray>
  <varray name="stress" >
   <v>     -10.22746806      -0.02247770      -0.03974893 </v>
   <v>      -0.02247769      -9.88507879      -0.09624583 </v>
   <v>      -0.03974898      -0.09624562       6.49616801 </v>
  </varray>
  <energy>
   <i name="e_fr_energy">   -189.78640239 </i>
   <i name="e_wo_entrp">   -189.66599386 </i>
   <i name="e_0_energy">     -0.24081706 </i>
  </energy>
  <time name="totalsc">  398.78  399.84</time>
 </calculation>
 <calculation>
  <scstep>
   <time name="dav">   22.81   22.86</time>
   <time name="total">   23.41   23.47</time>
   <energy>
    <i name="alphaZ">     85.85411085 </i>
    <i name="ewald">  42849.56592523 </i>
    <i name="hartreedc"> -48866.32965499 </i>
    <i name="XCdc">   -232.93969137 </i>
    <i name="pawpsdc">   4038.62874368 </i>
    <i name="pawaedc">  -3454.32716528 </i>
    <i name="eentropy">     -0.19876821 </i>
    <i name="bandstr">  -1373.09542684 </i>
    <i name="atom">   6761.44252427 </i>
    <i name="e_fr_energy">   -191.39940266 </i>
    <i name="e_wo_entrp">   -191.20063445 </i>
    <i name="e_0_energy">   -191.30001855 </i>
   </energy>
  </scstep>
  <scstep>
   <time name="dav">   33.94   34.02</time>
   <time name="total">   34.54   34.63</time>
   <energy>
    <i name="e_fr_energy">   -191.13637926 </i>
    <i name="e_wo_entrp">   -190.93290181 </i>
    <i name="e_0_energy">   -191.03464054 </i>
   </energy>
  </scstep>
  <scstep>
   <time name="dav">   31.29   31.37</time>
   <time name="total">   31.89   31.98</time>
   <energy>
    <i name="e_fr_energy">   -191.45019881 </i>
    <i name="e_wo_entrp">   -191.23352409 </i>
    <i name="e_0_energy">   -191.34186145 </i>
   </energy>
  </scstep>
  <scstep>
   <time name="dav">   29.46   29.54</time>
   <time name="total">   30.06   30.14</time>
   <energy>
    <i name="e_fr_energy">   -191.00463869 </i>
    <i name="e_wo_entrp">   -190.79291463 </i>
    <i name="e_0_energy">   -190.89877666 </i>
   </energy>
  </scstep>
  <scstep>
   <time name="dav">   30.84   30.91</time>
   <time name="total">   31.44   31.53</time>
   <energy>
    <i name="e_fr_energy">   -190.99485698 </i>
    <i name="e_wo_entrp">   -190.79983704 </i>
    <i name="e_0_energy">   -190.89734701 </i>
   </energy>
  </scstep>
  <scstep>
   <time name="dav">   31.29   31.36</time>
   <time name="total">   31.89   31.97</time>
   <energy>
    <i name="e_fr_energy">   -190.81490991 </i>
    <i name="e_wo_entrp">   -190.60752497 </i>
    <i name="e_0_energy">   -190.71121744 </i>
   </energy>
  </scstep>
  <scstep>
   <time name="dav">   32.01   32.08</time>
   <time name="total">   32.61   32.69</time>
   <energy>
    <i name="e_fr_energy">   -190.81475077 </i>
    <i name="e_wo_entrp">   -190.60860491 </i>
    <i name="e_0_energy">   -190.71167784 </i>
   </energy>
  </scstep>
  <scstep>
   <time name="dav">   30.54   30.62</time>
   <time name="total">   31.14   31.23</time>
   <energy>
    <i name="e_fr_energy">   -190.81295424 </i>
    <i name="e_wo_entrp">   -190.60628495 </i>
    <i name="e_0_energy">   -190.70961959 </i>
   </energy>
  </scstep>
  <scstep>
   <time name="dav">   29.83   29.90</time>
   <time name="total">   30.43   30.51</time>
   <energy>
    <i name="e_fr_energy">   -190.80930954 </i>
    <i name="e_wo_entrp">   -190.60307073 </i>
    <i name="e_0_energy">   -190.70619014 </i>
   </energy>
  </scstep>
  <scstep>
   <time name="dav">   29.24   29.31</time>
   <time name="total">   29.84   29.92</time>
   <energy>
    <i name="e_fr_energy">   -190.80960874 </i>
    <i name="e_wo_entrp">   -190.60323131 </i>
    <i name="e_0_energy">   -190.70642002 </i>
   </energy>
  </scstep>
  <scstep>
   <time name="dav">   28.08   28.14</time>
   <time name="total">   28.68   28.76</time>
   <energy>
    <i name="e_fr_energy">   -190.80939142 </i>
    <i name="e_wo_entrp">   -190.60291243 </i>
    <i name="e_0_energy">   -190.70615193 </i>
   </energy>
  </scstep>
  <scstep>
   <time name="dav">   20.99   21.04</time>
   <time name="total">   21.03   21.09</time>
   <energy>
    <i name="alphaZ">     85.85411085 </i>
    <i name="ewald">  42849.56592523 </i>
    <i name="hartreedc"> -48837.36086896 </i>
    <i name="XCdc">   -234.28496734 </i>
    <i name="pawpsdc">   4064.25829006 </i>
    <i name="pawaedc">  -3480.14548292 </i>
    <i name="eentropy">     -0.20651226 </i>
    <i name="bandstr">  -1399.93241802 </i>
    <i name="atom">   6761.44252427 </i>
    <i name="e_fr_energy">   -190.80939910 </i>
    <i name="e_wo_entrp">   -190.60288684 </i>
    <i name="e_0_energy">   -190.70614297 </i>
   </energy>
  </scstep>
  <structure>
   <crystal>
    <varray name="basis" >
     <v>       8.48398730       4.90190440       0.00000000 </v>
     <v>      -8.48113873       4.89700747       0.00000000 </v>
     <v>       0.00000000       0.00000000      30.00000000 </v>
    </varray>
    <i name="volume">   2493.59641404 </i>
    <varray name="rec_basis" >
     <v>       0.05891500       0.10203502       0.00000000 </v>
     <v>      -0.05897391       0.10206929       0.00000000 </v>
     <v>       0.00000000       0.00000000       0.03333333 </v>
    </varray>
   </crystal>
   <varray name="positions" >
    <v>       0.66397751       0.66417693       0.00004451 </v>
    <v>       0.66382002       0.33073716       0.00002932 </v>
    <v>       0.66667668       0.00239355      -0.00026695 </v>
    <v>       1.00616798       0.33540069      -0.00003132 </v>
    <v>       0.33017406       0.00214663      -0.00002669 </v>
    <v>       0.32707154       0.32764339       0.00019767 </v>
    <v>       0.00825862       0.00805838      -0.00017859 </v>
    <v>       0.00496825       0.66634194       0.00007650 </v>
    <v>       0.32805778       0.66260971       0.00013918 </v>
    <v>       0.11040293       0.22095642       0.94824174 </v>
    <v>       0.22096879       0.11045614       0.05175132 </v>
    <v>       0.11150353       0.55649334       0.94856876 </v>
    <v>       0.22314468       0.44567455       0.05139600 </v>
    <v>       0.10941322       0.88809482       0.94901042 </v>
    <v>       0.22195002       0.77678271       0.05102438 </v>
    <v>       0.45035356       0.22534297       0.95042200 </v>
    <v>       0.56096430       0.11373166       0.04827435 </v>
    <v>       0.44923724       0.55866090       0.95078468 </v>
    <v>       0.56077369       0.44674340       0.04802989 </v>
    <v>       0.44927604       0.89030823       0.95107770 </v>
    <v>       0.55957282       0.77968487       0.04786865 </v>
    <v>       0.77228375       0.21959376       0.95201627 </v>
    <v>       0.88366318       0.10744104       0.04927966 </v>
    <v>       0.77352978       0.55338937       0.95215059 </v>
    <v>       0.88368401       0.44263616       0.04905802 </v>
    <v>       0.77370104       0.88694088       0.95245441 </v>
    <v>       0.88461943       0.77577485       0.04860743 </v>
   </varray>
  </structure>
  <varray name="forces" >
   <v>      -0.07694044      -0.19053452       0.00746249 </v>
   <v>      -0.07420961      -0.17312371      -0.00001194 </v>
   <v>      -0.04941515       0.02684231      -0.05293135 </v>
   <v>       0.30555999       0.50139695       0.03355647 </v>
   <v>      -0.46494024      -0.18394064      -0.03577240 </v>
   <v>      -0.09257709      -0.59671574      -0.03320140 </v>
   <v>       0.06392155       0.67529633       0.04126164 </v>
   <v>       0.48425167       0.26477028       0.06175045 </v>
   <v>      -0.17822456      -0.48555343      -0.03911472 </v>
   <v>      -0.01159618       0.02537801      -0.66216627 </v>
   <v>      -0.00402933       0.02825005       0.67876761 </v>
   <v>       0.02902049      -0.02322247      -0.57730988 </v>
   <v>       0.06444600       0.02964152       0.57515848 </v>
   <v>      -0.04553546      -0.02957357      -0.42285756 </v>
   <v>       0.02470425       0.08145770       0.45380192 </v>
   <v>      -0.02161580       0.02494191      -0.36527174 </v>
   <v>      -0.03810474      -0.00410213       0.33368433 </v>
   <v>       0.01462249      -0.05256643      -0.23264998 </v>
   <v>      -0.00258227      -0.06340523       0.30073884 </v>
   <v>      -0.02041848      -0.01808315      -0.15011679 </v>
   <v>      -0.04060938      -0.01334198       0.22985783 </v>
   <v>       0.01210237       0.05218397      -0.25450088 </v>
   <v>       0.00528493       0.02717646       0.23794157 </v>
   <v>       0.05455191      -0.00375773      -0.19892315 </v>
   <v>       0.03718989      -0.03148018       0.19722094 </v>
   <v>       0.02959610       0.06294835      -0.14648964 </v>
   <v>      -0.00445294       0.06911708       0.02011512 </v>
  </varray>
  <varray name="stress" >
   <v>      -5.89704946       0.16066900       0.01216040 </v>
   <v>       0.16066897      -5.70432003       0.08766042 </v>
   <v>       0.01216053       0.08766044       4.63984652 </v>
  </varray>
  <energy>
   <i name="e_fr_energy">   -190.80939910 </i>
   <i name="e_wo_entrp">   -190.70614297 </i>
   <i name="e_0_energy">     -0.20651226 </i>
  </energy>
  <time name="totalsc">  400.53  401.58</time>
 </calculation>
 <calculation>
  <scstep>
   <time name="dav">   22.80   22.85</time>
   <time name="total">   23.40   23.45</time>
   <energy>
    <i name="alphaZ">     90.28422444 </i>
    <i name="ewald">  44708.99617880 </i>
    <i name="hartreedc"> -50752.92861020 </i>
    <i name="XCdc">   -231.81247099 </i>
    <i name="pawpsdc">   4064.18109470 </i>
    <i name="pawaedc">  -3480.06460208 </i>
    <i name="eentropy">     -0.18034919 </i>
    <i name="bandstr">  -1352.17800946 </i>
    <i name="atom">   6761.44252427 </i>
    <i name="e_fr_energy">   -192.26001972 </i>
    <i name="e_wo_entrp">   -192.07967053 </i>
    <i name="e_0_energy">   -192.16984512 </i>
   </energy>
  </scstep>
  <scstep>
   <time name="dav">   29.08   29.15</time>
   <time name="total">   29.68   29.76</time>
   <energy>
    <i name="e_fr_energy">   -192.01121153 </i>
    <i name="e_wo_entrp">   -191.79660058 </i>
    <i name="e_0_energy">   -191.90390605 </i>
   </energy>
  </scstep>
  <scstep>
   <time name="dav">   31.19   31.26</time>
   <time name="total">   31.78   31.87</time>
   <energy>
    <i name="e_fr_energy">   -192.46112684 </i>
    <i name="e_wo_entrp">   -192.28806805 </i>
    <i name="e_0_energy">   -192.37459745 </i>
   </energy>
  </scstep>
  <scstep>
   <time name="dav">   31.54   31.61</time>
   <time name="total">   32.13   32.22</time>
   <energy>
    <i name="e_fr_energy">   -191.70093480 </i>
    <i name="e_wo_entrp">   -191.51139935 </i>
    <i name="e_0_energy">   -191.60616708 </i>
   </energy>
  </scstep>
  <scstep>
   <time name="dav">   30.80   30.87</time>
   <time name="total">   31.39   31.48</time>
   <energy>
    <i name="e_fr_energy">   -191.75104806 </i>
    <i name="e_wo_entrp">   -191.55041131 </i>
    <i name="e_0_energy">   -191.65072969 </i>
   </energy>
  </scstep>
  <scstep>
   <time name="dav">   31.44   31.52</time>
   <time name="total">   32.04   32.13</time>
   <energy>
    <i name="e_fr_energy">   -191.54921527 </i>
    <i name="e_wo_entrp">   -191.35882147 </i>
    <i name="e_0_energy">   -191.45401837 </i>
   </energy>
  </scstep>
  <scstep>
   <time name="dav">   30.74   30.81</time>
   <time name="total">   31.33   31.42</time>
   <energy>
    <i name="e_fr_energy">   -191.54208564 </i>
    <i name="e_wo_entrp">   -191.34507198 </i>
    <i name="e_0_energy">   -191.44357881 </i>
   </energy>
  </scstep>
  <scstep>
   <time name="dav">   31.67   31.75</time>
   <time name="total">   32.27   32.35</time>
   <energy>
    <i name="e_fr_energy">   -191.53929701 </i>
    <i name="e_wo_entrp">   -191.34368351 </i>
    <i name="e_0_energy">   -191.44149026 </i>
   </energy>
  </scstep>
  <scstep>
   <time name="dav">   30.00   30.07</time>
   <time name="total">   30.59   30.67</time>
   <energy>
    <i name="e_fr_energy">   -191.53464744 </i>
    <i name="e_wo_entrp">   -191.33925403 </i>
    <i name="e_0_energy">   -191.43695073 </i>
   </energy>
  </scstep>
  <scstep>
   <time name="dav">   29.85   29.92</time>
   <time name="total">   30.45   30.53</time>
   <energy>
    <i name="e_fr_energy">   -191.53465545 </i>
    <i name="e_wo_entrp">   -191.33946214 </i>
    <i name="e_0_energy">   -191.43705880 </i>
   </energy>
  </scstep>
  <scstep>
   <time name="dav">   24.73   24.79</time>
   <time name="total">   24.77   24.84</time>
   <energy>
    <i name="alphaZ">     90.28422444 </i>
    <i name="ewald">  44708.99617880 </i>
    <i name="hartreedc"> -50718.15018108 </i>
    <i name="XCdc">   -233.34595698 </i>
    <i name="pawpsdc">   4087.47050469 </i>
    <i name="pawaedc">  -3503.46820360 </i>
    <i name="eentropy">     -0.19544646 </i>
    <i name="bandstr">  -1384.56831903 </i>
    <i name="atom">   6761.44252427 </i>
    <i name="e_fr_energy">   -191.53467495 </i>
    <i name="e_wo_entrp">   -191.33922849 </i>
    <i name="e_0_energy">   -191.43695172 </i>
   </energy>
  </scstep>
  <structure>
   <crystal>
    <varray name="basis" >
     <v>       8.27246449       4.79193167       0.00000000 </v>
     <v>      -8.25985198       4.77012194       0.00000000 </v>
     <v>       0.00000000       0.00000000      30.00000000 </v>
    </varray>
    <i name="volume">   2371.23931957 </i>
    <varray name="rec_basis" >
     <v>       0.06034973       0.10450044       0.00000000 </v>
     <v>      -0.06062566       0.10466001       0.00000000 </v>
     <v>       0.00000000       0.00000000       0.03333333 </v>
    </varray>
   </crystal>
   <varray name="positions" >
    <v>       0.66113838       0.66237541       0.00007171 </v>
    <v>       0.66117075       0.32909893       0.00002631 </v>
    <v>       0.66663085       0.00311761      -0.00049480 </v>
    <v>       1.01472412       0.33949593       0.00013698 </v>
    <v>       0.32436803       0.00305505      -0.00020257 </v>
    <v>       0.31875945       0.32076322       0.00004404 </v>
    <v>       0.01730457       0.01601274       0.00001615 </v>
    <v>       0.01190716       0.66632722       0.00036919 </v>
    <v>       0.32055338       0.65782807      -0.00004523 </v>
    <v>       0.11081022       0.22160033       0.94487035 </v>
    <v>       0.22140244       0.11086949       0.05517036 </v>
    <v>       0.11140317       0.55588639       0.94556734 </v>
    <v>       0.22382689       0.44537820       0.05438386 </v>
    <v>       0.10891777       0.88813951       0.94664675 </v>
    <v>       0.22314283       0.77773629       0.05349905 </v>
    <v>       0.45102267       0.22609324       0.94837268 </v>
    <v>       0.56110930       0.11417944       0.05014922 </v>
    <v>       0.44925636       0.55806162       0.94927466 </v>
    <v>       0.56045721       0.44624799       0.04974158 </v>
    <v>       0.44946017       0.89062437       0.94991426 </v>
    <v>       0.55979838       0.78016518       0.04930880 </v>
    <v>       0.77253877       0.21990751       0.95047967 </v>
    <v>       0.88343835       0.10752930       0.05082658 </v>
    <v>       0.77322700       0.55264004       0.95082600 </v>
    <v>       0.88299698       0.44158496       0.05042411 </v>
    <v>       0.77402043       0.88714394       0.95137589 </v>
    <v>       0.88482885       0.77635247       0.04924695 </v>
   </varray>
  </structure>
  <varray name="forces" >
   <v>      -0.18681880      -0.24371167       0.04527036 </v>
   <v>      -0.14630979      -0.19090247       0.00157160 </v>
   <v>       0.06175198       0.00576349      -0.05385400 </v>
   <v>       0.02801590       0.28784764      -0.10352487 </v>
   <v>      -0.24750422      -0.09424762       0.09702863 </v>
   <v>       0.06012056      -0.08863630       0.08128475 </v>
   <v>      -0.01085615       0.24724283      -0.05293164 </v>
   <v>       0.40819385       0.17486872      -0.06203059 </v>
   <v>      -0.06503905      -0.26709647       0.10925228 </v>
   <v>      -0.07694828       0.00898245      -0.25790209 </v>
   <v>       0.02082606       0.06266788       0.29517763 </v>
   <v>       0.04017525      -0.06643189      -0.32512454 </v>
   <v>       0.15483044       0.07652180       0.19639701 </v>
   <v>      -0.07594247      -0.07077381      -0.08576497 </v>
   <v>       0.03917948       0.15930677       0.16093431 </v>
   <v>      -0.12917692      -0.15526346      -0.06008183 </v>
   <v>      -0.09128496      -0.11336354      -0.03024331 </v>
   <v>      -0.04399198      -0.21717734      -0.01990184 </v>
   <v>      -0.05639829      -0.19116907       0.01331982 </v>
   <v>      -0.15598027      -0.16237617       0.13307184 </v>
   <v>      -0.10087235      -0.12516261      -0.02824175 </v>
   <v>       0.06059796       0.17433833       0.09869058 </v>
   <v>       0.05167380       0.21089529      -0.03178879 </v>
   <v>       0.10415510       0.09721389       0.12129279 </v>
   <v>       0.17403340       0.08664485      -0.07847979 </v>
   <v>       0.10074870       0.18889706       0.10417741 </v>
   <v>       0.08282107       0.20512140      -0.26759898 </v>
  </varray>
  <varray name="stress" >
   <v>      -0.18717597       0.55205116       0.50966569 </v>
   <v>       0.55205134       0.55772260       0.64581080 </v>
   <v>       0.50966556       0.64581086      -0.43297138 </v>
  </varray>
  <energy>
   <i name="e_fr_energy">   -191.53467495 </i>
   <i name="e_wo_entrp">   -191.43695172 </i>
   <i name="e_0_energy">     -0.19544646 </i>
  </energy>
  <time name="totalsc">  373.77  374.76</time>
 </calculation>
 <calculation>
  <scstep>
   <time name="dav">   22.80   22.86</time>
   <time name="total">   23.41   23.46</time>
   <energy>
    <i name="alphaZ">     90.18787404 </i>
    <i name="ewald">  44642.67263815 </i>
    <i name="hartreedc"> -50651.62687713 </i>
    <i name="XCdc">   -233.50731113 </i>
    <i name="pawpsdc">   4087.70715791 </i>
    <i name="pawaedc">  -3503.70238014 </i>
    <i name="eentropy">     -0.19578025 </i>
    <i name="bandstr">  -1384.58073179 </i>
    <i name="atom">   6761.44252427 </i>
    <i name="e_fr_energy">   -191.60288606 </i>
    <i name="e_wo_entrp">   -191.40710581 </i>
    <i name="e_0_energy">   -191.50499594 </i>
   </energy>
  </scstep>
  <scstep>
   <time name="dav">   32.65   32.73</time>
   <time name="total">   33.24   33.33</time>
   <energy>
    <i name="e_fr_energy">   -191.70107907 </i>
    <i name="e_wo_entrp">   -191.48898009 </i>
    <i name="e_0_energy">   -191.59502958 </i>
   </energy>
  </scstep>
  <scstep>
   <time name="dav">   32.00   32.08</time>
   <time name="total">   32.60   32.69</time>
   <energy>
    <i name="e_fr_energy">   -191.61589483 </i>
    <i name="e_wo_entrp">   -191.41733361 </i>
    <i name="e_0_energy">   -191.51661422 </i>
   </energy>
  </scstep>
  <scstep>
   <time name="dav">   30.19   30.26</time>
   <time name="total">   30.79   30.87</time>
   <energy>
    <i name="e_fr_energy">   -191.62007737 </i>
    <i name="e_wo_entrp">   -191.42102056 </i>
    <i name="e_0_energy">   -191.52054897 </i>
   </energy>
  </scstep>
  <scstep>
   <time name="dav">   30.30   30.37</time>
   <time name="total">   30.90   30.98</time>
   <energy>
    <i name="e_fr_energy">   -191.61346496 </i>
    <i name="e_wo_entrp">   -191.41310539 </i>
    <i name="e_0_energy">   -191.51328518 </i>
   </energy>
  </scstep>
  <scstep>
   <time name="dav">   30.04   30.11</time>
   <time name="total">   30.63   30.71</time>
   <energy>
    <i name="e_fr_energy">   -191.61480115 </i>
    <i name="e_wo_entrp">   -191.41595657 </i>
    <i name="e_0_energy">   -191.51537886 </i>
   </energy>
  </scstep>
  <scstep>
   <time name="dav">   29.58   29.65</time>
   <time name="total">   30.17   30.26</time>
   <energy>
    <i name="e_fr_energy">   -191.61329077 </i>
    <i name="e_wo_entrp">   -191.41300198 </i>
    <i name="e_0_energy">   -191.51314637 </i>
   </energy>
  </scstep>
  <scstep>
   <time name="dav">   26.02   26.08</time>
   <time name="total">   26.62   26.69</time>
   <energy>
    <i name="e_fr_energy">   -191.61298118 </i>
    <i name="e_wo_entrp">   -191.41315811 </i>
    <i name="e_0_energy">   -191.51306964 </i>
   </energy>
  </scstep>
  <scstep>
   <time name="dav">   18.94   18.98</time>
   <time name="total">   18.98   19.03</time>
   <energy>
    <i name="alphaZ">     90.18787404 </i>
    <i name="ewald">  44642.67263815 </i>
    <i name="hartreedc"> -50653.51058986 </i>
    <i name="XCdc">   -233.45048790 </i>
    <i name="pawpsdc">   4083.90580917 </i>
    <i name="pawaedc">  -3499.84641696 </i>
    <i name="eentropy">     -0.19980903 </i>
    <i name="bandstr">  -1382.81453683 </i>
    <i name="atom">   6761.44252427 </i>
    <i name="e_fr_energy">   -191.61299494 </i>
    <i name="e_wo_entrp">   -191.41318590 </i>
    <i name="e_0_energy">   -191.51309042 </i>
   </energy>
  </scstep>
  <structure>
   <crystal>
    <varray name="basis" >
     <v>       8.27575256       4.81116680       0.00000000 </v>
     <v>      -8.24929172       4.76537138       0.00000000 </v>
     <v>       0.00000000       0.00000000      30.00000000 </v>
    </varray>
    <i name="volume">   2373.77258543 </i>
    <varray name="rec_basis" >
     <v>       0.06022529       0.10425546       0.00000000 </v>
     <v>      -0.06080406       0.10458987       0.00000000 </v>
     <v>       0.00000000       0.00000000       0.03333333 </v>
    </varray>
   </crystal>
   <varray name="positions" >
    <v>       0.65938449       0.66170083       0.00014403 </v>
    <v>       0.65979843       0.32857124       0.00002884 </v>
    <v>       0.66683877       0.00296448      -0.00058017 </v>
    <v>       1.01622037       0.34084647      -0.00002921 </v>
    <v>       0.32319809       0.00329908      -0.00004674 </v>
    <v>       0.31851671       0.32016593       0.00017459 </v>
    <v>       0.01848293       0.01725995      -0.00006920 </v>
    <v>       0.01394298       0.66601764       0.00026893 </v>
    <v>       0.31905068       0.65669161       0.00013017 </v>
    <v>       0.11063074       0.22186665       0.94447032 </v>
    <v>       0.22177532       0.11112220       0.05562990 </v>
    <v>       0.11118678       0.55543813       0.94505853 </v>
    <v>       0.22465701       0.44531348       0.05468683 </v>
    <v>       0.10834418       0.88800468       0.94651867 </v>
    <v>       0.22405117       0.77841896       0.05374703 </v>
    <v>       0.44986681       0.22568625       0.94828448 </v>
    <v>       0.56027507       0.11387375       0.05009362 </v>
    <v>       0.44803873       0.55710058       0.94924897 </v>
    <v>       0.55933533       0.44545306       0.04975625 </v>
    <v>       0.44819253       0.89026082       0.95013207 </v>
    <v>       0.55887650       0.77982775       0.04925785 </v>
    <v>       0.77358859       0.22060623       0.95064361 </v>
    <v>       0.88464746       0.10843823       0.05076945 </v>
    <v>       0.77401842       0.55282835       0.95102543 </v>
    <v>       0.88393882       0.44151809       0.05029292 </v>
    <v>       0.77525973       0.88779960       0.95154707 </v>
    <v>       0.88609782       0.77714041       0.04881568 </v>
   </varray>
  </structure>
  <varray name="forces" >
   <v>      -0.23083887      -0.30493871       0.02254885 </v>
   <v>      -0.16173905      -0.22378067      -0.02867139 </v>
   <v>       0.08977961       0.05531910      -0.07844947 </v>
   <v>       0.06308478       0.31901131      -0.01899651 </v>
   <v>      -0.28347893      -0.09524273       0.02732865 </v>
   <v>       0.03827245      -0.12611208      -0.01845219 </v>
   <v>      -0.03257255       0.33336218       0.03015891 </v>
   <v>       0.44768634       0.19134426      -0.01394868 </v>
   <v>      -0.04749747      -0.31502952       0.00761734 </v>
   <v>      -0.02058653       0.05563727      -0.14518245 </v>
   <v>      -0.02364951      -0.00241393       0.19229443 </v>
   <v>       0.05822853       0.01894344      -0.25283246 </v>
   <v>       0.09071231       0.02463745       0.13905258 </v>
   <v>      -0.02477549      -0.04027010      -0.03183828 </v>
   <v>       0.01678595       0.08490233       0.11770834 </v>
   <v>      -0.06612001      -0.10304847      -0.02775317 </v>
   <v>      -0.05290823      -0.07639701      -0.04075457 </v>
   <v>      -0.03135695      -0.12096568      -0.00608656 </v>
   <v>      -0.02794424      -0.10784290       0.04506324 </v>
   <v>      -0.09270140      -0.10188680       0.18393924 </v>
   <v>      -0.07374930      -0.08271588      -0.01311667 </v>
   <v>       0.03235794       0.11373769       0.11541384 </v>
   <v>       0.01263353       0.14737372      -0.06196604 </v>
   <v>       0.06432190       0.07970290       0.16811944 </v>
   <v>       0.10445597       0.05998202      -0.10817087 </v>
   <v>       0.07750437       0.10894306       0.10994572 </v>
   <v>       0.07409487       0.10774777      -0.31297127 </v>
  </varray>
  <varray name="stress" >
   <v>      -0.05273499       0.01233856       0.13876781 </v>
   <v>       0.01233843      -0.12140152       0.15826360 </v>
   <v>       0.13876772       0.15826359      -1.33949682 </v>
  </varray>
  <energy>
   <i name="e_fr_energy">   -191.61299494 </i>
   <i name="e_wo_entrp">   -191.51309042 </i>
   <i name="e_0_energy">     -0.19980903 </i>
  </energy>
  <time name="totalsc">  300.75  301.54</time>
 </calculation>
 <calculation>
  <scstep>
   <time name="dav">   22.80   22.86</time>
   <time name="total">   23.40   23.46</time>
   <energy>
    <i name="alphaZ">     90.25419401 </i>
    <i name="ewald">  44676.21717696 </i>
    <i name="hartreedc"> -50687.55558227 </i>
    <i name="XCdc">   -233.39470921 </i>
    <i name="pawpsdc">   4083.76649284 </i>
    <i name="pawaedc">  -3499.70574683 </i>
    <i name="eentropy">     -0.19718838 </i>
    <i name="bandstr">  -1382.50876465 </i>
    <i name="atom">   6761.44252427 </i>
    <i name="e_fr_energy">   -191.68160325 </i>
    <i name="e_wo_entrp">   -191.48441487 </i>
    <i name="e_0_energy">   -191.58300906 </i>
   </energy>
  </scstep>
  <scstep>
   <time name="dav">   34.06   34.14</time>
   <time name="total">   34.66   34.75</time>
   <energy>
    <i name="e_fr_energy">   -191.75086443 </i>
    <i name="e_wo_entrp">   -191.53602700 </i>
    <i name="e_0_energy">   -191.64344571 </i>
   </energy>
  </scstep>
  <scstep>
   <time name="dav">   31.95   32.03</time>
   <time name="total">   32.55   32.64</time>
   <energy>
    <i name="e_fr_energy">   -191.68955405 </i>
    <i name="e_wo_entrp">   -191.48947669 </i>
    <i name="e_0_energy">   -191.58951537 </i>
   </energy>
  </scstep>
  <scstep>
   <time name="dav">   30.03   30.10</time>
   <time name="total">   30.63   30.71</time>
   <energy>
    <i name="e_fr_energy">   -191.69292036 </i>
    <i name="e_wo_entrp">   -191.49387858 </i>
    <i name="e_0_energy">   -191.59339947 </i>
   </energy>
  </scstep>
  <scstep>
   <time name="dav">   30.36   30.43</time>
   <time name="total">   30.95   31.04</time>
   <energy>
    <i name="e_fr_energy">   -191.68674723 </i>
    <i name="e_wo_entrp">   -191.48556890 </i>
    <i name="e_0_energy">   -191.58615807 </i>
   </energy>
  </scstep>
  <scstep>
   <time name="dav">   30.09   30.16</time>
   <time name="total">   30.69   30.77</time>
   <energy>
    <i name="e_fr_energy">   -191.68707778 </i>
    <i name="e_wo_entrp">   -191.48648813 </i>
    <i name="e_0_energy">   -191.58678296 </i>
   </energy>
  </scstep>
  <scstep>
   <time name="dav">   29.76   29.84</time>
   <time name="total">   30.37   30.45</time>
   <energy>
    <i name="e_fr_energy">   -191.68691100 </i>
    <i name="e_wo_entrp">   -191.48490368 </i>
    <i name="e_0_energy">   -191.58590734 </i>
   </energy>
  </scstep>
  <scstep>
   <time name="dav">   26.88   26.94</time>
   <time name="total">   27.48   27.55</time>
   <energy>
    <i name="e_fr_energy">   -191.68636510 </i>
    <i name="e_wo_entrp">   -191.48512876 </i>
    <i name="e_0_energy">   -191.58574693 </i>
   </energy>
  </scstep>
  <scstep>
[...]
      <set comment="kpoint 31">
       <r>  -17.4792    1.0000 </r>
       <r>  -17.3048    1.0000 </r>
       <r>  -16.8985    1.0000 </r>
       <r>  -16.6635    1.0000 </r>
       <r>  -16.5170    1.0000 </r>
       <r>  -16.4263    1.0000 </r>
       <r>  -16.2732    1.0000 </r>
       <r>  -16.2211    1.0000 </r>
       <r>  -16.1476    1.0000 </r>
       <r>  -16.1021    1.0000 </r>
       <r>  -15.9269    1.0000 </r>
       <r>  -15.8645    1.0000 </r>
       <r>  -15.7220    1.0000 </r>
       <r>  -15.6686    1.0000 </r>
       <r>  -15.5628    1.0000 </r>
       <r>  -15.5144    1.0000 </r>
       <r>  -15.3782    1.0000 </r>
       <r>  -15.2767    1.0000 </r>
       <r>   -9.7687    1.0000 </r>
       <r>   -9.5212    1.0000 </r>
       <r>   -9.2739    1.0000 </r>
       <r>   -8.9106    1.0000 </r>
       <r>   -8.8550    1.0000 </r>
       <r>   -8.6973    1.0000 </r>
       <r>   -8.5981    1.0000 </r>
       <r>   -8.5243    1.0000 </r>
       <r>   -8.4000    1.0000 </r>
       <r>   -8.3379    1.0000 </r>
       <r>   -8.2605    1.0000 </r>
       <r>   -8.1441    1.0000 </r>
       <r>   -8.0932    1.0000 </r>
       <r>   -8.0535    1.0000 </r>
       <r>   -8.0096    1.0000 </r>
       <r>   -7.9047    1.0000 </r>
       <r>   -7.7924    1.0000 </r>
       <r>   -7.7169    1.0000 </r>
       <r>   -7.5569    1.0000 </r>
       <r>   -7.4392    1.0000 </r>
       <r>   -7.3874    1.0000 </r>
       <r>   -7.2549    1.0000 </r>
       <r>   -7.1347    1.0000 </r>
       <r>   -7.0314    1.0000 </r>
       <r>   -6.9308    1.0000 </r>
       <r>   -6.9109    1.0000 </r>
       <r>   -6.8474    1.0000 </r>
       <r>   -6.7297    1.0000 </r>
       <r>   -6.6422    1.0000 </r>
       <r>   -6.6318    1.0000 </r>
       <r>   -6.5541    1.0000 </r>
       <r>   -6.5110    1.0000 </r>
       <r>   -6.4347    1.0000 </r>
       <r>   -6.4226    1.0000 </r>
       <r>   -6.3103    1.0000 </r>
       <r>   -6.1705    1.0000 </r>
       <r>   -6.1375    1.0000 </r>
       <r>   -6.0920    1.0000 </r>
       <r>   -6.0162    1.0000 </r>
       <r>   -5.9549    1.0000 </r>
       <r>   -5.8773    1.0000 </r>
       <r>   -5.8190    1.0000 </r>
       <r>   -5.7526    1.0000 </r>
       <r>   -5.6759    1.0000 </r>
       <r>   -5.5294    1.0000 </r>
       <r>   -5.3087    1.0000 </r>
       <r>   -5.2776    1.0000 </r>
       <r>   -5.1257    1.0000 </r>
       <r>   -5.0645    1.0000 </r>
       <r>   -4.8860    1.0000 </r>
       <r>   -4.8109    1.0000 </r>
       <r>   -4.6751    1.0000 </r>
       <r>   -4.5765    1.0000 </r>
       <r>   -4.4298    1.0000 </r>
       <r>   -4.3066    1.0000 </r>
       <r>   -4.2521    1.0000 </r>
       <r>   -4.1387    1.0000 </r>
       <r>   -4.0947    1.0000 </r>
       <r>   -3.9019    1.0000 </r>
       <r>   -3.7585    0.9981 </r>
       <r>   -3.6420    0.9805 </r>
       <r>   -3.3811    0.5863 </r>
       <r>   -2.8569    0.0002 </r>
       <r>   -2.8309    0.0001 </r>
       <r>   -2.6739    0.0000 </r>
       <r>   -2.5904    0.0000 </r>
       <r>   -2.5376    0.0000 </r>
       <r>   -2.4102    0.0000 </r>
       <r>   -2.3439    0.0000 </r>
       <r>   -2.2722    0.0000 </r>
       <r>   -2.1096    0.0000 </r>
       <r>   -2.0188    0.0000 </r>
       <r>   -1.7488    0.0000 </r>
       <r>   -1.4299    0.0000 </r>
       <r>   -1.3820    0.0000 </r>
       <r>   -1.2850    0.0000 </r>
       <r>   -1.2087    0.0000 </r>
       <r>   -1.1447    0.0000 </r>
       <r>   -1.1144    0.0000 </r>
       <r>   -0.9537    0.0000 </r>
       <r>   -0.9306    0.0000 </r>
       <r>   -0.8689    0.0000 </r>
       <r>   -0.8493    0.0000 </r>
       <r>   -0.7588    0.0000 </r>
       <r>   -0.6675    0.0000 </r>
       <r>   -0.5533    0.0000 </r>
       <r>   -0.5019    0.0000 </r>
       <r>   -0.2742    0.0000 </r>
       <r>   -0.2404    0.0000 </r>
       <r>   -0.1079    0.0000 </r>
       <r>    0.0378    0.0000 </r>
       <r>    0.2099    0.0000 </r>
       <r>    0.3042    0.0000 </r>
       <r>    0.4946    0.0000 </r>
       <r>    0.7399    0.0000 </r>
       <r>    0.8706    0.0000 </r>
       <r>    1.0550    0.0000 </r>
       <r>    1.2677    0.0000 </r>
       <r>    1.4403    0.0000 </r>
       <r>    2.1336    0.0000 </r>
       <r>    2.2890    0.0000 </r>
       <r>    2.3931    0.0000 </r>
      </set>
      <set comment="kpoint 32">
       <r>  -17.5017    1.0000 </r>
       <r>  -17.2295    1.0000 </r>
       <r>  -17.0053    1.0000 </r>
       <r>  -16.6638    1.0000 </r>
       <r>  -16.4627    1.0000 </r>
       <r>  -16.3236    1.0000 </r>
       <r>  -16.2869    1.0000 </r>
       <r>  -16.2658    1.0000 </r>
       <r>  -16.1616    1.0000 </r>
       <r>  -16.1054    1.0000 </r>
       <r>  -15.9618    1.0000 </r>
       <r>  -15.8904    1.0000 </r>
       <r>  -15.7118    1.0000 </r>
       <r>  -15.6665    1.0000 </r>
       <r>  -15.5506    1.0000 </r>
       <r>  -15.5043    1.0000 </r>
       <r>  -15.3708    1.0000 </r>
       <r>  -15.2854    1.0000 </r>
       <r>   -9.6936    1.0000 </r>
       <r>   -9.5961    1.0000 </r>
       <r>   -9.3384    1.0000 </r>
       <r>   -8.8957    1.0000 </r>
       <r>   -8.7592    1.0000 </r>
       <r>   -8.6768    1.0000 </r>
       <r>   -8.5878    1.0000 </r>
       <r>   -8.4387    1.0000 </r>
       <r>   -8.3827    1.0000 </r>
       <r>   -8.3427    1.0000 </r>
       <r>   -8.3173    1.0000 </r>
       <r>   -8.1909    1.0000 </r>
       <r>   -8.1045    1.0000 </r>
       <r>   -8.0766    1.0000 </r>
       <r>   -8.0259    1.0000 </r>
       <r>   -8.0092    1.0000 </r>
       <r>   -7.7653    1.0000 </r>
       <r>   -7.7063    1.0000 </r>
       <r>   -7.5617    1.0000 </r>
       <r>   -7.4451    1.0000 </r>
       <r>   -7.3486    1.0000 </r>
       <r>   -7.2975    1.0000 </r>
       <r>   -7.1799    1.0000 </r>
       <r>   -7.0429    1.0000 </r>
       <r>   -6.9310    1.0000 </r>
       <r>   -6.8596    1.0000 </r>
       <r>   -6.7752    1.0000 </r>
       <r>   -6.7223    1.0000 </r>
       <r>   -6.6646    1.0000 </r>
       <r>   -6.6303    1.0000 </r>
       <r>   -6.5802    1.0000 </r>
       <r>   -6.5369    1.0000 </r>
       <r>   -6.4765    1.0000 </r>
       <r>   -6.3870    1.0000 </r>
       <r>   -6.3418    1.0000 </r>
       <r>   -6.1816    1.0000 </r>
       <r>   -6.1329    1.0000 </r>
       <r>   -6.0503    1.0000 </r>
       <r>   -6.0050    1.0000 </r>
       <r>   -5.8975    1.0000 </r>
       <r>   -5.8753    1.0000 </r>
       <r>   -5.7540    1.0000 </r>
       <r>   -5.7145    1.0000 </r>
       <r>   -5.6184    1.0000 </r>
       <r>   -5.4991    1.0000 </r>
       <r>   -5.4176    1.0000 </r>
       <r>   -5.3426    1.0000 </r>
       <r>   -5.0884    1.0000 </r>
       <r>   -5.0045    1.0000 </r>
       <r>   -4.9372    1.0000 </r>
       <r>   -4.8363    1.0000 </r>
       <r>   -4.7199    1.0000 </r>
       <r>   -4.6390    1.0000 </r>
       <r>   -4.4243    1.0000 </r>
       <r>   -4.3002    1.0000 </r>
       <r>   -4.2357    1.0000 </r>
       <r>   -4.1205    1.0000 </r>
       <r>   -4.0737    1.0000 </r>
       <r>   -3.9339    1.0000 </r>
       <r>   -3.7710    0.9985 </r>
       <r>   -3.6403    0.9799 </r>
       <r>   -3.3414    0.4751 </r>
       <r>   -2.9033    0.0008 </r>
       <r>   -2.8175    0.0001 </r>
       <r>   -2.6541    0.0000 </r>
       <r>   -2.6200    0.0000 </r>
       <r>   -2.5105    0.0000 </r>
       <r>   -2.3811    0.0000 </r>
       <r>   -2.3552    0.0000 </r>
       <r>   -2.2553    0.0000 </r>
       <r>   -2.0834    0.0000 </r>
       <r>   -2.0264    0.0000 </r>
       <r>   -1.8497    0.0000 </r>
       <r>   -1.4396    0.0000 </r>
       <r>   -1.3436    0.0000 </r>
       <r>   -1.2445    0.0000 </r>
       <r>   -1.1564    0.0000 </r>
       <r>   -1.1239    0.0000 </r>
       <r>   -1.0573    0.0000 </r>
       <r>   -0.9699    0.0000 </r>
       <r>   -0.9389    0.0000 </r>
       <r>   -0.8838    0.0000 </r>
       <r>   -0.8457    0.0000 </r>
       <r>   -0.7577    0.0000 </r>
       <r>   -0.6884    0.0000 </r>
       <r>   -0.5953    0.0000 </r>
       <r>   -0.4812    0.0000 </r>
       <r>   -0.3297    0.0000 </r>
       <r>   -0.2409    0.0000 </r>
       <r>   -0.1180    0.0000 </r>
       <r>    0.0503    0.0000 </r>
       <r>    0.1765    0.0000 </r>
       <r>    0.3233    0.0000 </r>
       <r>    0.4220    0.0000 </r>
       <r>    0.7671    0.0000 </r>
       <r>    0.8740    0.0000 </r>
       <r>    1.0357    0.0000 </r>
       <r>    1.2867    0.0000 </r>
       <r>    1.4697    0.0000 </r>
       <r>    2.1025    0.0000 </r>
       <r>    2.2567    0.0000 </r>
       <r>    2.5616    0.0000 </r>
      </set>
      <set comment="kpoint 33">
       <r>  -17.4859    1.0000 </r>
       <r>  -17.2928    1.0000 </r>
       <r>  -16.9077    1.0000 </r>
       <r>  -16.6641    1.0000 </r>
       <r>  -16.5193    1.0000 </r>
       <r>  -16.4090    1.0000 </r>
       <r>  -16.2746    1.0000 </r>
       <r>  -16.2286    1.0000 </r>
       <r>  -16.1402    1.0000 </r>
       <r>  -16.1031    1.0000 </r>
       <r>  -15.9129    1.0000 </r>
       <r>  -15.8959    1.0000 </r>
       <r>  -15.7297    1.0000 </r>
       <r>  -15.6570    1.0000 </r>
       <r>  -15.5638    1.0000 </r>
       <r>  -15.5042    1.0000 </r>
       <r>  -15.3648    1.0000 </r>
       <r>  -15.2955    1.0000 </r>
       <r>   -9.7336    1.0000 </r>
       <r>   -9.5026    1.0000 </r>
       <r>   -9.2827    1.0000 </r>
       <r>   -8.9202    1.0000 </r>
       <r>   -8.8208    1.0000 </r>
       <r>   -8.7463    1.0000 </r>
       <r>   -8.6148    1.0000 </r>
       <r>   -8.5209    1.0000 </r>
       <r>   -8.4475    1.0000 </r>
       <r>   -8.3574    1.0000 </r>
       <r>   -8.2473    1.0000 </r>
       <r>   -8.1397    1.0000 </r>
       <r>   -8.0906    1.0000 </r>
       <r>   -8.0407    1.0000 </r>
       <r>   -8.0049    1.0000 </r>
       <r>   -7.9068    1.0000 </r>
       <r>   -7.7758    1.0000 </r>
       <r>   -7.6869    1.0000 </r>
       <r>   -7.6069    1.0000 </r>
       <r>   -7.4785    1.0000 </r>
       <r>   -7.3527    1.0000 </r>
       <r>   -7.2185    1.0000 </r>
       <r>   -7.1553    1.0000 </r>
       <r>   -7.0674    1.0000 </r>
       <r>   -6.9876    1.0000 </r>
       <r>   -6.8744    1.0000 </r>
       <r>   -6.8452    1.0000 </r>
       <r>   -6.7220    1.0000 </r>
       <r>   -6.6598    1.0000 </r>
       <r>   -6.6034    1.0000 </r>
       <r>   -6.5621    1.0000 </r>
       <r>   -6.5067    1.0000 </r>
       <r>   -6.4608    1.0000 </r>
       <r>   -6.4061    1.0000 </r>
       <r>   -6.2789    1.0000 </r>
       <r>   -6.1965    1.0000 </r>
       <r>   -6.1428    1.0000 </r>
       <r>   -6.0556    1.0000 </r>
       <r>   -5.9965    1.0000 </r>
       <r>   -5.9075    1.0000 </r>
       <r>   -5.8792    1.0000 </r>
       <r>   -5.7899    1.0000 </r>
       <r>   -5.7114    1.0000 </r>
       <r>   -5.6830    1.0000 </r>
       <r>   -5.5284    1.0000 </r>
       <r>   -5.3763    1.0000 </r>
       <r>   -5.3077    1.0000 </r>
       <r>   -5.1184    1.0000 </r>
       <r>   -5.0652    1.0000 </r>
       <r>   -4.8991    1.0000 </r>
       <r>   -4.7473    1.0000 </r>
       <r>   -4.6971    1.0000 </r>
       <r>   -4.5864    1.0000 </r>
       <r>   -4.4040    1.0000 </r>
       <r>   -4.3318    1.0000 </r>
       <r>   -4.2381    1.0000 </r>
       <r>   -4.1534    1.0000 </r>
       <r>   -4.0811    1.0000 </r>
       <r>   -3.9410    1.0000 </r>
       <r>   -3.8089    0.9994 </r>
       <r>   -3.6595    0.9856 </r>
       <r>   -3.3066    0.3790 </r>
       <r>   -2.9265    0.0014 </r>
       <r>   -2.8160    0.0001 </r>
       <r>   -2.6826    0.0000 </r>
       <r>   -2.6407    0.0000 </r>
       <r>   -2.4671    0.0000 </r>
       <r>   -2.4099    0.0000 </r>
       <r>   -2.3209    0.0000 </r>
       <r>   -2.2362    0.0000 </r>
       <r>   -2.0502    0.0000 </r>
       <r>   -2.0156    0.0000 </r>
       <r>   -1.8835    0.0000 </r>
       <r>   -1.4637    0.0000 </r>
       <r>   -1.3108    0.0000 </r>
       <r>   -1.2102    0.0000 </r>
       <r>   -1.1737    0.0000 </r>
       <r>   -1.0811    0.0000 </r>
       <r>   -1.0566    0.0000 </r>
       <r>   -0.9549    0.0000 </r>
       <r>   -0.9057    0.0000 </r>
       <r>   -0.8775    0.0000 </r>
       <r>   -0.8298    0.0000 </r>
       <r>   -0.7866    0.0000 </r>
       <r>   -0.6936    0.0000 </r>
       <r>   -0.6279    0.0000 </r>
       <r>   -0.4845    0.0000 </r>
       <r>   -0.4122    0.0000 </r>
       <r>   -0.2357    0.0000 </r>
       <r>   -0.1501    0.0000 </r>
       <r>   -0.0005    0.0000 </r>
       <r>    0.1632    0.0000 </r>
       <r>    0.3123    0.0000 </r>
       <r>    0.4251    0.0000 </r>
       <r>    0.7801    0.0000 </r>
       <r>    0.9273    0.0000 </r>
       <r>    1.0272    0.0000 </r>
       <r>    1.3237    0.0000 </r>
       <r>    1.4964    0.0000 </r>
       <r>    2.1318    0.0000 </r>
       <r>    2.2886    0.0000 </r>
       <r>    2.3827    0.0000 </r>
      </set>
      <set comment="kpoint 34">
       <r>  -17.4587    1.0000 </r>
       <r>  -17.3525    1.0000 </r>
       <r>  -16.7709    1.0000 </r>
       <r>  -16.6695    1.0000 </r>
       <r>  -16.6477    1.0000 </r>
       <r>  -16.4268    1.0000 </r>
       <r>  -16.2644    1.0000 </r>
       <r>  -16.2314    1.0000 </r>
       <r>  -16.1255    1.0000 </r>
       <r>  -16.0999    1.0000 </r>
       <r>  -15.8999    1.0000 </r>
       <r>  -15.8400    1.0000 </r>
       <r>  -15.7650    1.0000 </r>
       <r>  -15.6484    1.0000 </r>
       <r>  -15.5778    1.0000 </r>
       <r>  -15.5094    1.0000 </r>
       <r>  -15.3614    1.0000 </r>
       <r>  -15.3006    1.0000 </r>
       <r>   -9.7631    1.0000 </r>
       <r>   -9.4264    1.0000 </r>
       <r>   -9.1499    1.0000 </r>
       <r>   -9.0679    1.0000 </r>
       <r>   -8.8541    1.0000 </r>
       <r>   -8.8174    1.0000 </r>
       <r>   -8.6031    1.0000 </r>
       <r>   -8.5638    1.0000 </r>
       <r>   -8.4850    1.0000 </r>
       <r>   -8.3652    1.0000 </r>
       <r>   -8.1908    1.0000 </r>
       <r>   -8.1431    1.0000 </r>
       <r>   -8.0645    1.0000 </r>
       <r>   -8.0354    1.0000 </r>
       <r>   -7.9409    1.0000 </r>
       <r>   -7.8679    1.0000 </r>
       <r>   -7.7891    1.0000 </r>
       <r>   -7.6388    1.0000 </r>
       <r>   -7.5999    1.0000 </r>
       <r>   -7.4712    1.0000 </r>
       <r>   -7.3957    1.0000 </r>
       <r>   -7.2919    1.0000 </r>
       <r>   -7.0725    1.0000 </r>
       <r>   -7.0672    1.0000 </r>
       <r>   -7.0333    1.0000 </r>
       <r>   -6.8794    1.0000 </r>
       <r>   -6.8480    1.0000 </r>
       <r>   -6.6944    1.0000 </r>
       <r>   -6.6570    1.0000 </r>
       <r>   -6.6093    1.0000 </r>
       <r>   -6.5692    1.0000 </r>
       <r>   -6.5194    1.0000 </r>
       <r>   -6.4533    1.0000 </r>
       <r>   -6.3266    1.0000 </r>
       <r>   -6.3155    1.0000 </r>
       <r>   -6.2328    1.0000 </r>
       <r>   -6.1415    1.0000 </r>
       <r>   -6.0605    1.0000 </r>
       <r>   -5.9602    1.0000 </r>
       <r>   -5.9423    1.0000 </r>
       <r>   -5.8833    1.0000 </r>
       <r>   -5.8203    1.0000 </r>
       <r>   -5.7544    1.0000 </r>
       <r>   -5.6776    1.0000 </r>
       <r>   -5.5727    1.0000 </r>
       <r>   -5.3459    1.0000 </r>
       <r>   -5.2930    1.0000 </r>
       <r>   -5.0984    1.0000 </r>
       <r>   -5.0670    1.0000 </r>
       <r>   -4.9468    1.0000 </r>
       <r>   -4.7283    1.0000 </r>
       <r>   -4.6008    1.0000 </r>
       <r>   -4.4927    1.0000 </r>
       <r>   -4.4140    1.0000 </r>
       <r>   -4.3651    1.0000 </r>
       <r>   -4.2456    1.0000 </r>
       <r>   -4.1886    1.0000 </r>
       <r>   -4.0959    1.0000 </r>
       <r>   -3.9386    1.0000 </r>
       <r>   -3.8350    0.9997 </r>
       <r>   -3.6708    0.9883 </r>
       <r>   -3.2960    0.3508 </r>
       <r>   -2.9266    0.0014 </r>
       <r>   -2.8208    0.0001 </r>
       <r>   -2.7035    0.0000 </r>
       <r>   -2.6500    0.0000 </r>
       <r>   -2.4472    0.0000 </r>
       <r>   -2.4199    0.0000 </r>
       <r>   -2.3053    0.0000 </r>
       <r>   -2.2308    0.0000 </r>
       <r>   -2.0386    0.0000 </r>
       <r>   -2.0092    0.0000 </r>
       <r>   -1.8778    0.0000 </r>
       <r>   -1.4692    0.0000 </r>
       <r>   -1.2996    0.0000 </r>
       <r>   -1.2167    0.0000 </r>
       <r>   -1.1780    0.0000 </r>
       <r>   -1.0698    0.0000 </r>
       <r>   -1.0555    0.0000 </r>
       <r>   -0.9540    0.0000 </r>
       <r>   -0.8780    0.0000 </r>
       <r>   -0.8443    0.0000 </r>
       <r>   -0.8283    0.0000 </r>
       <r>   -0.8091    0.0000 </r>
       <r>   -0.7034    0.0000 </r>
       <r>   -0.6411    0.0000 </r>
       <r>   -0.5155    0.0000 </r>
       <r>   -0.4213    0.0000 </r>
       <r>   -0.2348    0.0000 </r>
       <r>   -0.1799    0.0000 </r>
       <r>   -0.0164    0.0000 </r>
       <r>    0.1497    0.0000 </r>
       <r>    0.2893    0.0000 </r>
       <r>    0.4507    0.0000 </r>
       <r>    0.7901    0.0000 </r>
       <r>    0.9670    0.0000 </r>
       <r>    1.0192    0.0000 </r>
       <r>    1.3418    0.0000 </r>
       <r>    1.5078    0.0000 </r>
       <r>    2.2073    0.0000 </r>
       <r>    2.2436    0.0000 </r>
       <r>    2.3693    0.0000 </r>
      </set>
     </set>
    </set>
   </array>
  </eigenvalues>
  <separator name="orbital magnetization" >
   <v name="MAGDIPOLOUT">      0.00000000      0.00000000      0.00000000</v>
  </separator>
 </calculation>
 <structure name="finalpos" >
  <crystal>
   <varray name="basis" >
    <v>       8.37579874       4.85763071       0.00000000 </v>
    <v>      -8.34682266       4.80771033       0.00000000 </v>
    <v>       0.00000000       0.00000000      30.00000000 </v>
   </varray>
   <i name="volume">   2424.42588548 </i>
   <varray name="rec_basis" >
    <v>       0.05949091       0.10328411       0.00000000 </v>
    <v>      -0.06010863       0.10364267       0.00000000 </v>
    <v>       0.00000000       0.00000000       0.03333333 </v>
   </varray>
  </crystal>
  <varray name="positions" >
   <v>       0.63090571       0.64347545       0.00181065 </v>
   <v>       0.62699883       0.31300470       0.00222069 </v>
   <v>       0.70505311       0.02035483      -0.00316845 </v>
   <v>       1.02636325       0.34181682      -0.00094169 </v>
   <v>       0.31179817       0.01106055       0.00093768 </v>
   <v>       0.32151314       0.32523410       0.00064913 </v>
   <v>       0.02294982       0.03009030      -0.00031738 </v>
   <v>       0.03517196       0.66902591      -0.00201235 </v>
   <v>       0.31594281       0.63784900       0.00021246 </v>
   <v>       0.11384342       0.22507070       0.94274617 </v>
   <v>       0.21821822       0.11416992       0.05740596 </v>
   <v>       0.11777817       0.55446462       0.94224326 </v>
   <v>       0.22473251       0.44287615       0.05687910 </v>
   <v>       0.10542403       0.88868521       0.94649262 </v>
   <v>       0.22971549       0.77838743       0.05308394 </v>
   <v>       0.44054992       0.22079384       0.94732129 </v>
   <v>       0.55485778       0.10837813       0.04878729 </v>
   <v>       0.44369692       0.55268708       0.94686540 </v>
   <v>       0.55197177       0.44213824       0.05286510 </v>
   <v>       0.45115686       0.89316687       0.95938684 </v>
   <v>       0.55964316       0.78325145       0.04747210 </v>
   <v>       0.77687688       0.23215553       0.95253127 </v>
   <v>       0.89213024       0.11585791       0.05224735 </v>
   <v>       0.77371197       0.55180535       0.95695978 </v>
   <v>       0.88183007       0.44144098       0.04459854 </v>
   <v>       0.77882759       0.88618626       0.95193015 </v>
   <v>       0.88655265       0.77478712       0.04079300 </v>
  </varray>
 </structure>
</modeling>
